LAMMPS (30 Jul 2016)
variable seed equal 1928427307
variable avg_length equal 500000 # time over which to average RDF

units lj # This simulation uses Lennard-Jones reduced units (see notes)
boundary f f f # this isn't necessary, but we have reflective walls, so this
               # will tell us if those fail for some reason

# create box that can be filled with Type-1 atoms
lattice fcc 0.75 # reduced density is 0.75
Lattice spacing in x,y,z = 1.74716 1.74716 1.74716
region simbox block 0 5 0 5 0 5
create_box 1 simbox
Created orthogonal box = (0 0 0) to (8.7358 8.7358 8.7358)
  1 by 2 by 2 MPI processor grid

# How we calculate forces
pair_style lj/cut 2.5 # r_c = 2.5 sigma
pair_coeff 1 1 1.0 1.0 # specify sigma = 1 and epsilon = 1
mass 1 1 # mass, in LJ reduced units

# Do we want the Lennard-Jones potential shifted? Default: yes
#pair_modify shift no

# Fill simulation with type 1 atoms, on-lattice
create_atoms 1 box
Created 500 atoms
# give them random velocities consistent with kT/epsilon = 0.5
velocity all create 0.5 ${seed} # last number is a random number seed
velocity all create 0.5 1928427307 

# What thermodynamic information do we desire to collect?
thermo_style custom step temp press ke pe etotal
thermo 100 # print the above every 100 time steps

# set the time step; default is 0.005 tau
timestep 0.0005

# Apply reflective walls (to mimic the Monte Carlo simulation)
fix reflect all wall/reflect xlo EDGE xhi EDGE ylo EDGE yhi EDGE zlo EDGE zhi EDGE

# Run molecular dynamics in the isokinetic ensemble (constant
# kinetic energy) by rescaling the velocities every time step
# for 1000 time steps, to achieve a temperature consistent with
# kT/epsilon = 0.5
fix 2 all temp/rescale 1 0.5 0.5 0.0 1.0
fix 1 all nve # velocity Verlet time integration
run 1000
Neighbor list info ...
  1 neighbor list requests
  update every 1 steps, delay 10 steps, check yes
  max neighbors/atom: 2000, page size: 100000
  master list distance cutoff = 2.8
  ghost atom cutoff = 2.8
  binsize = 1.4 -> bins = 7 7 7
Memory usage per processor = 2.4841 Mbytes
Step Temp Press KinEng PotEng TotEng 
       0          0.5   -4.2606863       0.7485   -4.6432288   -3.8947288 
     100          0.5   -3.8776921       0.7485   -4.6958646   -3.9473646 
     200          0.5   -2.3438054       0.7485   -4.6023308   -3.8538308 
     300          0.5  -0.62222798       0.7485   -4.4945678   -3.7460678 
     400          0.5  -0.34873619       0.7485   -4.6408751   -3.8923751 
     500          0.5  -0.30242728       0.7485   -4.7559925   -4.0074925 
     600          0.5  -0.37979668       0.7485   -4.8737404   -4.1252404 
     700          0.5  -0.49977259       0.7485   -4.9956809   -4.2471809 
     800          0.5  -0.44100415       0.7485    -5.076171    -4.327671 
     900          0.5  -0.24635408       0.7485   -5.1283965   -4.3798965 
    1000          0.5  -0.12302582       0.7485   -5.2026797   -4.4541797 
Loop time of 0.0701723 on 4 procs for 1000 steps with 500 atoms

Performance: 615627.447 tau/day, 14250.635 timesteps/s
100.0% CPU use with 4 MPI tasks x no OpenMP threads

MPI task timing breakdown:
Section |  min time  |  avg time  |  max time  |%varavg| %total
---------------------------------------------------------------
Pair    | 0.021451   | 0.037758   | 0.057518   |   6.7 | 53.81
Neigh   | 0.00052333 | 0.00089395 | 0.0013044  |   1.0 |  1.27
Comm    | 0.0053933  | 0.026262   | 0.043592   |   8.5 | 37.42
Output  | 8.3447e-05 | 0.00010502 | 0.00016475 |   0.3 |  0.15
Modify  | 0.0026085  | 0.0035264  | 0.004503   |   1.1 |  5.03
Other   |            | 0.001627   |            |       |  2.32

Nlocal:    125 ave 156 max 101 min
Histogram: 1 0 0 2 0 0 0 0 0 1
Nghost:    236 ave 249 max 219 min
Histogram: 1 0 0 0 0 0 2 0 0 1
Neighs:    3349.5 ave 5259 max 1897 min
Histogram: 1 0 1 0 1 0 0 0 0 1

Total # of neighbors = 13398
Ave neighs/atom = 26.796
Neighbor list builds = 8
Dangerous builds = 0
unfix 2

# Compute the radial distribution function
compute RDF all rdf 50 # 50 bins between 0 and the cutoff distance
# output the average of the RDF over the last 50000 steps every 50000 steps
fix RDF all ave/time 1 1 ${avg_length} c_RDF[2*3] file RDF_lj.txt mode vector
fix RDF all ave/time 1 1 500000 c_RDF[2*3] file RDF_lj.txt mode vector

run ${avg_length} # run the simulation
run 500000 
Neighbor list info ...
  2 neighbor list requests
  update every 1 steps, delay 10 steps, check yes
  max neighbors/atom: 2000, page size: 100000
  master list distance cutoff = 2.8
  ghost atom cutoff = 2.8
  binsize = 1.4 -> bins = 7 7 7
Memory usage per processor = 2.4841 Mbytes
Step Temp Press KinEng PotEng TotEng 
    1000          0.5  -0.12302582       0.7485   -5.2026797   -4.4541797 
    1100   0.53810153   0.09176539   0.80553799   -5.2656573   -4.4601193 
    1200   0.56435567   0.38952383   0.84484043   -5.3099529   -4.4651125 
    1300   0.57908861   0.74356493   0.86689565   -5.3385024   -4.4716068 
    1400   0.60070019    1.0508698   0.89924819    -5.376012   -4.4767638 
    1500   0.59903632    1.4201297   0.89675738   -5.3797226   -4.4829652 
    1600    0.5941918    1.7089352   0.88950513    -5.377202   -4.4876968 
    1700   0.60441756    1.8427083   0.90481309   -5.3963626   -4.4915495 
    1800   0.58496984     2.063653   0.87569985   -5.3696623   -4.4939625 
    1900   0.59354376    2.0485261   0.88853501   -5.3823022   -4.4937671 
    2000   0.58287792    2.0223099   0.87256825   -5.3662058   -4.4936375 
    2100   0.57043537    1.8404743   0.85394174   -5.3446738    -4.490732 
    2200   0.60002014    1.3124602   0.89823015   -5.3854374   -4.4872073 
    2300   0.54185278    1.2285493   0.81115362    -5.293717   -4.4825633 
    2400   0.55071416   0.78443255   0.82441909   -5.3036552   -4.4792361 
    2500   0.52890958   0.47343232   0.79177764   -5.2664169   -4.4746393 
    2600    0.5051289   0.17681886   0.75617796   -5.2257161   -4.4695381 
    2700   0.50974849  -0.22526824   0.76309349   -5.2294051   -4.4663116 
    2800   0.48162668  -0.38789871   0.72099514   -5.1837393   -4.4627442 
    2900   0.46386335  -0.54325779   0.69440344   -5.1547972   -4.4603938 
    3000   0.45198908  -0.70960941   0.67662765   -5.1334644   -4.4568367 
    3100   0.45672004     -0.93016   0.68370991   -5.1386546   -4.4549447 
    3200   0.43539874   -0.9463328   0.65179191    -5.104158   -4.4523661 
    3300    0.4230836  -0.93122564   0.63335615   -5.0849662   -4.4516101 
    3400   0.41794781  -0.88127528   0.62566787   -5.0768542   -4.4511864 
    3500   0.40219797  -0.71161981   0.60209036   -5.0541893    -4.452099 
    3600   0.40508111  -0.61736592   0.60640642   -5.0576175   -4.4512111 
    3700   0.43037097  -0.63869585   0.64426534   -5.0955419   -4.4512766 
    3800   0.42912644  -0.50871354   0.64240228   -5.0953758   -4.4529735 
    3900   0.42117862  -0.32248585   0.63050439   -5.0848815   -4.4543771 
    4000   0.43745592  -0.28815263   0.65487151   -5.1098689   -4.4549974 
    4100    0.4676022  -0.33519814   0.70000049   -5.1576746   -4.4576741 
    4200   0.43667672 -0.056602617   0.65370506   -5.1115706   -4.4578655 
    4300   0.44595758 -0.010725541   0.66759849   -5.1272246   -4.4596261 
    4400   0.47530889 -0.076395643   0.71153741   -5.1741015   -4.4625641 
    4500   0.47388271  0.053876231   0.70940241   -5.1736302   -4.4642278 
    4600   0.47394496   0.19666908    0.7094956   -5.1744092   -4.4649136 
    4700   0.47161448   0.31740225   0.70600688   -5.1720302   -4.4660233 
    4800   0.46190313   0.43611427   0.69146898   -5.1590909   -4.4676219 
    4900   0.47549791   0.41000295   0.71182037   -5.1798346   -4.4680143 
    5000   0.49273279   0.36001698   0.73762098   -5.2066142   -4.4689932 
    5100   0.49448248    0.3902508   0.74024027   -5.2111582   -4.4709179 
    5200     0.471967    0.5168171    0.7065346   -5.1771259   -4.4705913 
    5300   0.49605025   0.35525894   0.74258722   -5.2130809   -4.4704937 
    5400   0.51434882   0.21202012   0.76998019   -5.2402124   -4.4702322 
    5500   0.50415412   0.23543701   0.75471872   -5.2247562   -4.4700375 
    5600   0.47311399   0.35928097   0.70825164    -5.178288   -4.4700363 
    5700   0.48479073   0.22941889   0.72573172    -5.194822   -4.4690903 
    5800   0.47117809   0.20766801    0.7053536   -5.1742475   -4.4688939 
    5900   0.48757962  0.047516496   0.72990669   -5.1981815   -4.4682748 
    6000   0.46785859   0.11411128   0.70038431   -5.1670266   -4.4666423 
    6100   0.48613984 -0.019044444   0.72775134    -5.194264   -4.4665126 
    6200   0.47557256 -0.0061695076   0.71193213   -5.1776288   -4.4656967 
    6300   0.45774838  0.060089761   0.68524932   -5.1506848   -4.4654355 
    6400   0.48484504 -0.099690236   0.72581302   -5.1906625   -4.4648495 
    6500   0.47323982 -0.014086368   0.70844001   -5.1734526   -4.4650126 
    6600   0.45239536   0.13248854   0.67723585   -5.1412038    -4.463968 
    6700   0.44732697   0.13511147   0.66964848   -5.1324775    -4.462829 
    6800   0.45353525  0.064073502   0.67894227   -5.1410863    -4.462144 
    6900   0.44784045  0.069271454   0.67041715   -5.1329206   -4.4625035 
    7000   0.45220777 0.0071846928   0.67695503   -5.1388703   -4.4619153 
    7100   0.47077135  -0.11520716   0.70474472   -5.1666613   -4.4619166 
    7200    0.4349678  0.036297228    0.6511468   -5.1133877   -4.4622409 
    7300    0.4574209  -0.14632987   0.68475908    -5.147915   -4.4631559 
    7400    0.4546616  -0.20367215   0.68062842   -5.1439793   -4.4633508 
    7500     0.452925  -0.21191969   0.67802873   -5.1408578   -4.4628291 
    7600   0.44535586  -0.15729293   0.66669772   -5.1285798   -4.4618821 
    7700   0.44974614   -0.1705423   0.67326998   -5.1352161   -4.4619462 
    7800   0.46408897  -0.23497016   0.69474119   -5.1571107   -4.4623695 
    7900   0.44533152 -0.092452742   0.66666129   -5.1295854   -4.4629241 
    8000   0.44109792  -0.02428943   0.66032359   -5.1234105   -4.4630869 
    8100   0.46394275  -0.12568718    0.6945223   -5.1581323     -4.46361 
    8200   0.45225558 -0.040665454    0.6770266   -5.1408369   -4.4638103 
    8300   0.44785165  0.051244299   0.67043391   -5.1345054   -4.4640715 
    8400   0.45474873   0.09866945   0.68075885   -5.1460939    -4.465335 
    8500   0.46602004   0.10398312     0.697632   -5.1633909   -4.4657589 
    8600   0.46574226   0.16000778   0.69721616   -5.1639209   -4.4667047 
    8700   0.47554756   0.14456294    0.7118947   -5.1778866   -4.4659919 
    8800   0.45802738   0.25196567   0.68566699   -5.1519189   -4.4662519 
    8900   0.45479218   0.27252577    0.6808239   -5.1480222   -4.4671983 
    9000   0.49391498  0.057154758   0.73939073    -5.206036   -4.4666452 
    9100    0.4816948   0.10658314   0.72109712   -5.1870882   -4.4659911 
    9200   0.45896733   0.23672275   0.68707409   -5.1530674   -4.4659933 
    9300   0.46923086   0.20474806   0.70243859   -5.1693141   -4.4668755 
    9400   0.46552352   0.23282235    0.6968887   -5.1622647    -4.465376 
    9500   0.47580049   0.18103838   0.71227333   -5.1782397   -4.4659663 
    9600   0.47743451   0.18775692   0.71471946   -5.1795718   -4.4648523 
    9700   0.47731446   0.21226664   0.71453975   -5.1789365   -4.4643967 
    9800   0.47037994    0.2565191   0.70415877   -5.1684263   -4.4642675 
    9900   0.47527395   0.17906202    0.7114851   -5.1757854   -4.4643003 
   10000   0.48434309  0.068669177   0.72506161   -5.1898195   -4.4647579 
   10100   0.45373201   0.18374568   0.67923682   -5.1436687   -4.4644319 
   10200    0.4617715  0.090415305   0.69127193   -5.1552151   -4.4639432 
   10300   0.45928029  0.027804879   0.68754259   -5.1503729   -4.4628303 
   10400   0.44773846  0.008229282   0.67026447   -5.1321149   -4.4618504 
   10500   0.45562401  -0.12660974   0.68206915   -5.1439194   -4.4618502 
   10600   0.44335126  -0.13544025   0.66369683   -5.1257423   -4.4620454 
   10700   0.42552504 -0.068261903   0.63701098    -5.099154    -4.462143 
   10800   0.44383264  -0.16947257   0.66441746   -5.1263924   -4.4619749 
   10900   0.46195335  -0.23724239   0.69154417   -5.1528997   -4.4613556 
   11000   0.45554876  -0.16533857   0.68195649    -5.143246   -4.4612895 
   11100   0.46541962  -0.15822307   0.69673317   -5.1564565   -4.4597233 
   11200   0.45717884 -0.045002759   0.68439673   -5.1453637   -4.4609669 
   11300   0.45308596  0.032332278   0.67826968   -5.1400196   -4.4617499 
   11400   0.46429344 -0.0063068185   0.69504728   -5.1569567   -4.4619095 
   11500   0.46077194  0.010050365   0.68977559    -5.152337   -4.4625614 
   11600   0.45784813  0.029338828   0.68539865   -5.1487094   -4.4633107 
   11700    0.4589398   0.04078718   0.68703289   -5.1511916   -4.4641587 
   11800   0.47845863 -0.024693768   0.71625257    -5.181391   -4.4651384 
   11900   0.46688678  0.095183143   0.69892951   -5.1643626   -4.4654331 
   12000   0.46067246   0.19070492   0.68962667    -5.155681   -4.4660544 
   12100   0.46386924   0.21137025   0.69441225   -5.1611837   -4.4667715 
   12200   0.46085239   0.25923869   0.68989603    -5.156864    -4.466968 
   12300   0.43608207   0.41279816   0.65281486   -5.1190977   -4.4662828 
   12400   0.46492438    0.2603018   0.69599179   -5.1630267   -4.4670349 
   12500    0.4836047   0.16021883   0.72395624   -5.1901451   -4.4661889 
   12600   0.47596378   0.20536888   0.71251778   -5.1792932   -4.4667755 
   12700   0.46725689   0.27188208   0.69948357   -5.1660308   -4.4665472 
   12800   0.46224474   0.31568374   0.69198037    -5.158135   -4.4661546 
   12900   0.45219678   0.34016158   0.67693858    -5.144071   -4.4671324 
   13000   0.48020015   0.12939017   0.71885963   -5.1853053   -4.4664456 
   13100   0.47424199  0.096559538   0.70994025   -5.1753411   -4.4654009 
   13200   0.46787967  0.069143142   0.70041587   -5.1654897   -4.4650738 
   13300   0.46285059   0.04148721   0.69288733   -5.1577972   -4.4649099 
   13400   0.46008666  0.018700355   0.68874973   -5.1531403   -4.4643906 
   13500   0.47823302 -0.070400243   0.71591483    -5.179712   -4.4637972 
   13600    0.4812851 -0.064345208    0.7204838   -5.1840206   -4.4635368 
   13700   0.45288225  0.087808697   0.67796472   -5.1410114   -4.4630467 
   13800   0.44846687   0.10115266    0.6713549   -5.1340351   -4.4626802 
   13900   0.44176757   0.10235356   0.66132605   -5.1243321   -4.4630061 
   14000    0.4596419 -0.031290438   0.68808393   -5.1499768   -4.4618928 
   14100   0.45632271 -0.047822711   0.68311509   -5.1451035   -4.4619884 
   14200   0.45898831 -0.086011778    0.6871055   -5.1491271   -4.4620216 
   14300   0.44370312 -0.037973757   0.66422357   -5.1257888   -4.4615653 
   14400   0.45588014  -0.11465097   0.68245257   -5.1444423   -4.4619897 
   14500   0.46007384 -0.098175004   0.68873054   -5.1504922   -4.4617617 
   14600   0.43982787  0.079968422   0.65842232   -5.1206397   -4.4622174 
   14700   0.46087728  0.039304529   0.68993328    -5.151371   -4.4614377 
   14800   0.45982448  0.099658261   0.68835724   -5.1511923   -4.4628351 
   14900   0.44628646   0.20351454   0.66809084   -5.1311836   -4.4630928 
   15000   0.45770647   0.16328132   0.68518659   -5.1482803   -4.4630937 
   15100   0.45868609   0.16802169   0.68665307   -5.1494509   -4.4627978 
   15200   0.45704463   0.14442977   0.68419581   -5.1469618   -4.4627659 
   15300   0.45238948    0.1059335   0.67722705    -5.140613   -4.4633859 
   15400   0.45156691   0.06685342   0.67599567   -5.1396411   -4.4636454 
   15500   0.45099626   0.06889499   0.67514141   -5.1377192   -4.4625778 
   15600   0.44540673  0.097139862   0.66677387   -5.1293844   -4.4626105 
   15700   0.45224704  0.045053602   0.67701382   -5.1398271   -4.4628133 
   15800   0.45497985  0.017585644   0.68110484   -5.1447669   -4.4636621 
   15900    0.4537307  0.016817841   0.67923485    -5.142862   -4.4636272 
   16000   0.44415258  0.065779904   0.66489642   -5.1277741   -4.4628776 
   16100   0.43529349   0.11706673   0.65163435   -5.1144421   -4.4628078 
   16200   0.44955838  0.037748768   0.67298889   -5.1354111   -4.4624222 
   16300    0.4563718 0.0036741066   0.68318859   -5.1454138   -4.4622252 
   16400   0.44316435   0.11572006   0.66341703   -5.1266213   -4.4632042 
   16500   0.46393212  0.024047029   0.69450639   -5.1595078   -4.4650014 
   16600   0.48337885  -0.09498132   0.72361813   -5.1876127   -4.4639946 
   16700   0.46755252 -0.0084614988   0.69992613   -5.1648662     -4.46494 
   16800   0.48328544 -0.063783593   0.72347831   -5.1885095   -4.4650312 
   16900   0.47765782  0.019364947   0.71505375   -5.1808353   -4.4657816 
   17000   0.43370721    0.3062503   0.64925969   -5.1155284   -4.4662688 
   17100   0.47148792   0.13895668   0.70581741   -5.1723266   -4.4665092 
   17200   0.46630806   0.17566653   0.69806316   -5.1648919   -4.4668287 
   17300   0.47810756   0.16639277   0.71572702   -5.1828422   -4.4671151 
   17400   0.48342139   0.24148638   0.72368183   -5.1910356   -4.4673538 
   17500   0.45908319   0.50461931   0.68724754   -5.1552537   -4.4680062 
   17600   0.45564211   0.59070821   0.68209624   -5.1497769   -4.4676807 
   17700   0.46135729   0.54631059   0.69065186   -5.1589201   -4.4682683 
   17800   0.46174001     0.493621   0.69122479   -5.1598231   -4.4685983 
   17900    0.4588054   0.44984983   0.68683169    -5.155104   -4.4682724 
   18000    0.4748499   0.30459055   0.71085029   -5.1788625   -4.4680122 
   18100   0.47570995   0.29651065    0.7121378   -5.1793307   -4.4671929 
   18200   0.45884604   0.39213586   0.68689252   -5.1531965    -4.466304 
   18300   0.47626691   0.26491491   0.71297156   -5.1793389   -4.4663673 
   18400   0.47243514   0.23025596    0.7072354   -5.1726882   -4.4654528 
   18500   0.47340955   0.13843137    0.7086941   -5.1737542   -4.4650601 
   18600   0.45861644  0.089611484   0.68654881   -5.1502043   -4.4636555 
   18700   0.48209976  -0.13331922   0.72170334   -5.1841843    -4.462481 
   18800    0.4702988  -0.14287202   0.70403731   -5.1655701   -4.4615328 
   18900   0.45386216 -0.091303012   0.67943165   -5.1410343   -4.4616027 
   19000   0.43088284   0.01510099   0.64503161   -5.1061686   -4.4611369 
   19100   0.43574328 -0.029781004   0.65230769   -5.1131164   -4.4608087 
   19200   0.44423936  -0.10901314   0.66502633   -5.1264187   -4.4613924 
   19300   0.45015538  -0.12214274    0.6738826   -5.1361261   -4.4622435 
   19400   0.44022463 -0.036170825   0.65901627   -5.1210196   -4.4620034 
   19500    0.4419844 -0.037890934   0.66165064   -5.1243072   -4.4626565 
   19600   0.45101247 -0.069099449   0.67516567   -5.1383013   -4.4631356 
   19700   0.45858679 -0.078276989   0.68650442   -5.1484006   -4.4618962 
   19800   0.46717027 -0.092610596    0.6993539   -5.1613065   -4.4619526 
   19900   0.44096147  0.059202109   0.66011932   -5.1226566   -4.4625373 
   20000   0.45844171 -0.0071041503   0.68628723   -5.1492881   -4.4630008 
   20100   0.45250274  0.067940421    0.6773966   -5.1418658   -4.4644692 
   20200   0.45957416  0.099031739   0.68798251   -5.1535356   -4.4655531 
   20300   0.45364548   0.18443172   0.67910729   -5.1453131   -4.4662058 
   20400   0.45055235   0.26108683   0.67447687   -5.1415096   -4.4670327 
   20500   0.45624487   0.30478487   0.68299856   -5.1497729   -4.4667743 
   20600   0.47578492   0.25093387   0.71225002   -5.1784707   -4.4662206 
   20700   0.46881784   0.29281483   0.70182031   -5.1684972   -4.4666769 
   20800   0.46727634    0.3032767   0.69951267   -5.1662525   -4.4667399 
   20900   0.46343725   0.31270556   0.69376556   -5.1608315   -4.4670659 
   21000   0.47145542   0.22506588   0.70576876   -5.1724115   -4.4666428 
   21100   0.47179723   0.15216575   0.70628045   -5.1719761   -4.4656957 
   21200   0.48924345  0.010828683   0.73239744   -5.1987141   -4.4663167 
   21300   0.47356259  0.071555764    0.7089232   -5.1745544   -4.4656312 
   21400   0.45589479   0.12814326   0.68247451    -5.148104   -4.4656295 
   21500   0.46225088  0.058319377   0.69198956   -5.1568078   -4.4648183 
   21600    0.4483764   0.10548393   0.67121947   -5.1358073   -4.4645878 
   21700   0.46157164  0.022142344   0.69097275   -5.1561466   -4.4651739 
   21800   0.45511527  0.052321569   0.68130756   -5.1444902   -4.4631826 
   21900   0.45910823  0.060436544   0.68728502    -5.150306    -4.463021 
   22000   0.45035206   0.11876363   0.67417703   -5.1371634   -4.4629864 
   22100   0.44997484  0.096076916   0.67361233   -5.1360791   -4.4624668 
   22200   0.45705876  0.041334302   0.68421696    -5.146915    -4.462698 
   22300    0.4675464 -0.0038598916   0.69991696   -5.1629463   -4.4630293 
   22400   0.45394047  0.084936713   0.67954889   -5.1419627   -4.4624138 
   22500    0.4691288  0.014687667   0.70228581   -5.1649265   -4.4626407 
   22600   0.46067961  0.063891063   0.68963738   -5.1519241   -4.4622867 
   22700   0.45583944  0.082422544   0.68239165   -5.1450383   -4.4626467 
   22800   0.43138072   0.19068189   0.64577693   -5.1093317   -4.4635548 
   22900   0.43477801   0.13815158   0.65086268   -5.1139935   -4.4631308 
   23000   0.45623528 -0.0074065463   0.68298421   -5.1463155   -4.4633313 
   23100   0.46343076 -0.067916102   0.69375585   -5.1574463   -4.4636905 
   23200   0.45109583 -0.0014490797   0.67529045    -5.138786   -4.4634955 
   23300   0.45844429 -0.018259675   0.68629111   -5.1505023   -4.4642112 
   23400    0.4668987 -0.028485743   0.69894736   -5.1639097   -4.4649623 
   23500   0.45954837  0.046193681   0.68794391   -5.1529054   -4.4649615 
   23600   0.48271153 -0.025752719   0.72261916   -5.1876752   -4.4650561 
   23700   0.48693626 0.0083668673   0.72894358   -5.1944242   -4.4654806 
   23800   0.46517327   0.14397124   0.69636439   -5.1612844     -4.46492 
   23900   0.49055202  0.062204634   0.73435637    -5.199836   -4.4654796 
   24000   0.46758636   0.25234079   0.69997677   -5.1653896   -4.4654129 
   24100   0.46172796   0.33609914   0.69120676   -5.1568221   -4.4656153 
   24200   0.46817768    0.3310522   0.70086199   -5.1664662   -4.4656042 
   24300   0.47586813   0.26820648   0.71237459   -5.1776853   -4.4653107 
   24400   0.49080635   0.14641678    0.7347371    -5.200571   -4.4658339 
   24500   0.46860063   0.23560229   0.70149514    -5.168531   -4.4670359 
   24600   0.47647741    0.1912849   0.71328669   -5.1802594   -4.4669728 
   24700   0.46028332   0.28547321   0.68904413   -5.1563424   -4.4672982 
   24800   0.43592213   0.43028681   0.65257543   -5.1191554     -4.46658 
   24900   0.45856892   0.27164444   0.68647767   -5.1525685   -4.4660909 
   25000   0.47391888   0.12668687   0.70945657   -5.1746987   -4.4652422 
   25100   0.47620188  0.066378244   0.71287421     -5.17714   -4.4642658 
   25200   0.47703113  0.023286861    0.7141156   -5.1785445   -4.4644289 
   25300   0.47007418  0.011975679   0.70370105   -5.1684876   -4.4647865 
   25400   0.46713661  -0.01656354   0.69930351   -5.1635055    -4.464202 
   25500   0.46603342 -0.059027015   0.69765204   -5.1613649   -4.4637128 
   25600    0.4678866  -0.10352815   0.70042624   -5.1631328   -4.4627065 
   25700   0.47969701  -0.16355077   0.71810643   -5.1803997   -4.4622933 
   25800   0.45912575  -0.02442763   0.68731124   -5.1495725   -4.4622613 
   25900   0.42976817   0.13367488   0.64336294   -5.1055907   -4.4622278 
   26000   0.47341184  -0.09911296   0.70869753   -5.1710242   -4.4623267 
   26100   0.46717484 -0.043315142   0.69936073   -5.1629944   -4.4636337 
   26200     0.443964   0.10277771   0.66461411    -5.127986   -4.4633718 
   26300   0.45203962  0.049550799   0.67670331   -5.1403383    -4.463635 
   26400   0.47144899  -0.05671593   0.70575914   -5.1699495   -4.4641903 
   26500   0.46872038 -0.025173864    0.7016744   -5.1657996   -4.4641252 
   26600   0.45833655  0.038484226   0.68612982   -5.1508117   -4.4646819 
   26700   0.46354619  0.021501285   0.69392865   -5.1580254   -4.4640967 
   26800   0.46513644  0.053114872   0.69630925   -5.1614793     -4.46517 
   26900   0.46404654    0.1219983   0.69467767   -5.1596181   -4.4649404 
   27000   0.47618167   0.17530269   0.71284397   -5.1782781   -4.4654341 
   27100   0.46109504    0.3554773   0.69025928   -5.1566377   -4.4663784 
   27200   0.48974108   0.26123459   0.73314239   -5.1999132   -4.4667708 
   27300   0.46966156   0.37435675   0.70308335   -5.1696292   -4.4665459 
   27400   0.48170107    0.2617122    0.7211065   -5.1883711   -4.4672646 
   27500   0.48582527   0.19294531   0.72728042   -5.1949063   -4.4676259 
   27600    0.4627062   0.26912788   0.69267119   -5.1599044   -4.4672332 
   27700   0.48330192  0.092874609   0.72350297   -5.1909006   -4.4673976 
   27800    0.4856973  0.015969825   0.72708886   -5.1944866   -4.4673978 
   27900   0.46409483   0.10338343   0.69474995   -5.1619601   -4.4672101 
   28000    0.4709598  0.021343875   0.70502683   -5.1721394   -4.4671126 
   28100   0.47325215 -0.016545965   0.70845848   -5.1744906   -4.4660322 
   28200   0.46614336  0.040086791    0.6978166    -5.164077   -4.4662604 
   28300   0.47277758  0.056817767   0.70774803   -5.1735198   -4.4657718 
   28400    0.4635939    0.1630548   0.69400007   -5.1597427   -4.4657427 
   28500    0.4499718   0.27217036   0.67360778   -5.1395133   -4.4659055 
   28600   0.45322674   0.21169257   0.67848043   -5.1441584    -4.465678 
   28700   0.44426295   0.16315112   0.66506163   -5.1294986   -4.4644369 
   28800   0.46142641 0.00090028714   0.69075534   -5.1554892   -4.4647339 
   28900   0.45371112 -0.015446562   0.67920555   -5.1438681   -4.4646626 
   29000   0.42395379  0.073228599   0.63465882   -5.0986028   -4.4639439 
   29100   0.43910718 -0.062867409   0.65734345    -5.121781   -4.4644375 
   29200   0.43893844 -0.085672206   0.65709084   -5.1208108   -4.4637199 
   29300    0.4541841  -0.12945939   0.67991359   -5.1434698   -4.4635562 
   29400   0.44796083 -0.068392315   0.67059736   -5.1349041   -4.4643067 
   29500   0.44160871 -0.012910033   0.66108824   -5.1251345   -4.4640463 
   29600   0.44239224   0.00487625   0.66226119   -5.1265015   -4.4642403 
   29700   0.45465421 -0.010683175   0.68061735    -5.145051   -4.4644336 
   29800   0.46360163  0.024294165   0.69401164   -5.1584111   -4.4643994 
   29900   0.46281146   0.10196039   0.69282875   -5.1572278    -4.464399 
   30000   0.46980791   0.10800532   0.70330245   -5.1687795   -4.4654771 
   30100   0.44994786    0.2224549   0.67357195   -5.1382338   -4.4646619 
   30200   0.46565723   0.12546074   0.69708887   -5.1619473   -4.4648584 
   30300   0.45543872   0.13902672   0.68179177   -5.1463885   -4.4645968 
   30400   0.44571945   0.13947689   0.66724201   -5.1316438   -4.4644018 
   30500   0.45114721  0.045373984   0.67536737   -5.1394407   -4.4640733 
   30600    0.4474575 -0.0033196806   0.66984387   -5.1345375   -4.4646936 
   30700   0.44374624 -0.017854496   0.66428812   -5.1289783   -4.4646902 
   30800   0.45511505 -0.067156732   0.68130723   -5.1463566   -4.4650494 
   30900   0.44981803 -0.021438495   0.67337759   -5.1377116    -4.464334 
   31000   0.45532404 0.0017017791   0.68162009   -5.1471595   -4.4655394 
   31100   0.45306223  0.091263366   0.67823416   -5.1440341      -4.4658 
   31200    0.4493265   0.18621986   0.67264177   -5.1374614   -4.4648196 
   31300   0.44959259    0.2132283   0.67304011   -5.1380556   -4.4650155 
   31400   0.46653313   0.13561369    0.6984001   -5.1637429   -4.4653428 
   31500   0.46890819   0.10812748   0.70195556   -5.1679807   -4.4660252 
   31600   0.46777206  0.087948821   0.70025477   -5.1659208    -4.465666 
   31700   0.46052407   0.11914298   0.68940453   -5.1554855    -4.466081 
   31800   0.46894993   0.10416408   0.70201805   -5.1682258   -4.4662078 
   31900   0.47767956   0.10404819    0.7150863   -5.1820143    -4.466928 
   32000   0.45944632   0.23940002   0.68779114   -5.1541298   -4.4663386 
   32100   0.46690395   0.23765986   0.69895522   -5.1647967   -4.4658414 
   32200   0.48514622   0.17910663   0.72626389   -5.1923348   -4.4660709 
   32300   0.48315435   0.23049714   0.72328207   -5.1885373   -4.4652552 
   32400   0.46728017   0.31999585   0.69951841   -5.1653285   -4.4658101 
   32500   0.45913248   0.35796125   0.68732132   -5.1544042   -4.4670829 
   32600   0.47508964   0.24786805   0.71120919    -5.177705   -4.4664958 
   32700    0.4790025   0.18776626   0.71706675   -5.1839227   -4.4668559 
   32800   0.47199461   0.19384612   0.70657593   -5.1730788   -4.4665029 
   32900   0.45371287   0.24877716   0.67920817   -5.1465261    -4.467318 
   33000    0.4486135   0.18999039    0.6715744   -5.1380738   -4.4664994 
   33100   0.43967914   0.15629869   0.65819967   -5.1250279   -4.4668282 
   33200   0.43322557   0.14182285   0.64853867   -5.1148409   -4.4663023 
   33300   0.47495289  -0.10099805   0.71100447   -5.1769171   -4.4659126 
   33400   0.45291464  0.018671829   0.67801322   -5.1437282    -4.465715 
   33500   0.45161196  0.055617335    0.6760631   -5.1418436   -4.4657805 
   33600    0.4721221 -0.020945674   0.70676679   -5.1717354   -4.4649687 
   33700   0.45876869    0.1208262   0.68677672   -5.1511246   -4.4643479 
   33800   0.44207035    0.2305071   0.66177932   -5.1269443    -4.465165 
   33900   0.46736466  0.066208457   0.69964489   -5.1647128   -4.4650679 
   34000   0.45386858   0.10897078   0.67944127   -5.1446726   -4.4652314 
   34100   0.45220068   0.11334854   0.67694441   -5.1409037   -4.4639593 
   34200   0.43304763   0.20732923   0.64827231   -5.1114753    -4.463203 
   34300   0.46390956  0.052433561   0.69447261   -5.1580027   -4.4635301 
   34400   0.44851332   0.13193485   0.67142444   -5.1352804   -4.4638559 
   34500   0.45069962   0.13380745   0.67469733   -5.1396511   -4.4649538 
   34600   0.44720593   0.16225497   0.66946728   -5.1345531   -4.4650858 
   34700   0.45058939   0.15718057   0.67453232   -5.1406956   -4.4661633 
   34800   0.46338354   0.13383224   0.69368516   -5.1596499   -4.4659647 
   34900    0.4646246    0.2140619   0.69554302   -5.1620957   -4.4665527 
   35000   0.44505396   0.37530197   0.66624578   -5.1328631   -4.4666174 
   35100   0.44499749   0.34647744   0.66616125   -5.1321923   -4.4660311 
   35200   0.46952553   0.14675498   0.70287971   -5.1685538    -4.465674 
   35300   0.45776065   0.15324588   0.68526769    -5.150582   -4.4653143 
   35400   0.45848975   0.11026553   0.68635916   -5.1499466   -4.4635875 
   35500   0.46561917 0.0065254405    0.6970319   -5.1603572   -4.4633253 
   35600   0.46707134 -0.027324757   0.69920579   -5.1634054   -4.4641996 
   35700   0.44426132   0.11011438    0.6650592   -5.1291927   -4.4641335 
   35800   0.46726712 -0.00010564272   0.69949888   -5.1630465   -4.4635476 
   35900   0.45594974  0.083620845   0.68255676   -5.1459004   -4.4633437 
   36000   0.44919531   0.13747875   0.67244538    -5.135822   -4.4633766 
   36100   0.44337085   0.14895318   0.66372616   -5.1275587   -4.4638325 
   36200    0.4435102     0.145033   0.66393476    -5.127538   -4.4636033 
   36300   0.45147992   0.10817732   0.67586544   -5.1392119   -4.4633465 
   36400   0.45645852  0.090733076    0.6833184   -5.1463642   -4.4630458 
   36500   0.45198724   0.14458177    0.6766249   -5.1402564   -4.4636315 
   36600      0.44913    0.1759256   0.67234761    -5.136402   -4.4640543 
   36700   0.44143483   0.20609377   0.66082794   -5.1261188   -4.4652909 
   36800   0.44893698   0.14223429   0.67205865   -5.1375141   -4.4654555 
   36900   0.46000789  0.059846626   0.68863181    -5.153859   -4.4652272 
   37000   0.47251921 -0.0054020206   0.70736126   -5.1725511   -4.4651898 
   37100   0.46824169  0.027139266    0.7009578    -5.165779   -4.4648212 
   37200   0.47411849 -0.0033335054   0.70975538   -5.1738558   -4.4641004 
   37300   0.46483532   0.08742307   0.69585847   -5.1597965    -4.463938 
   37400   0.46345537   0.17508268   0.69379269    -5.158481   -4.4646883 
   37500   0.45221961   0.32903713   0.67697275   -5.1429636   -4.4659908 
   37600   0.45614882   0.37027051   0.68285479   -5.1485223   -4.4656675 
   37700   0.46035817   0.35984507   0.68915618   -5.1543009   -4.4651447 
   37800   0.45716805    0.3787914   0.68438057   -5.1496235    -4.465243 
   37900   0.44904538   0.37210053   0.67222093   -5.1381484   -4.4659274 
   38000   0.47108841   0.18179714   0.70521936   -5.1705902   -4.4653709 
   38100   0.44738064   0.24466255   0.66972882   -5.1351648    -4.465436 
   38200   0.44187724   0.19062359   0.66149023   -5.1275027   -4.4660125 
   38300   0.45727318  0.012611963   0.68453795   -5.1502237   -4.4656858 
   38400   0.44021259  0.029377815   0.65899825   -5.1235135   -4.4645153 
   38500   0.45157442  -0.12267469   0.67600691   -5.1395392   -4.4635323 
   38600   0.45820101  -0.23295239   0.68592692   -5.1491016   -4.4631746 
   38700   0.46106643   -0.2572293   0.69021644    -5.153744   -4.4635276 
   38800   0.42741647 -0.047925353   0.63984246   -5.1036296   -4.4637871 
   38900    0.4642077  -0.21153869   0.69491893   -5.1588383   -4.4639193 
   39000   0.45146196  -0.11788068   0.67583855   -5.1399846    -4.464146 
   39100   0.45391573 -0.078067611   0.67951184   -5.1436866   -4.4641747 
   39200   0.43372797   0.10556608   0.64929077    -5.113791   -4.4645002 
   39300   0.45918747  0.061186027   0.68740364    -5.152819   -4.4654153 
   39400    0.4735623  0.058298874   0.70892276   -5.1753504   -4.4664276 
   39500   0.45709387   0.21337515   0.68426953    -5.151448   -4.4671785 
   39600   0.47383634   0.17553556     0.709333   -5.1762148   -4.4668818 
   39700   0.46890431   0.25082557   0.70194975   -5.1685273   -4.4665776 
   39800   0.46389236   0.34390544   0.69444686   -5.1617436   -4.4672967 
   39900   0.47770749   0.29995997   0.71512812   -5.1834053   -4.4682772 
   40000   0.47064735    0.3516747   0.70455909   -5.1736201    -4.469061 
   40100   0.48239147   0.31272532   0.72214003   -5.1902525   -4.4681125 
   40200   0.47384141    0.3553909    0.7093406   -5.1772239   -4.4678833 
   40300   0.48554053   0.25986066   0.72685418   -5.1934983   -4.4666441 
   40400   0.48258558   0.21771929   0.72243061    -5.189441   -4.4670104 
   40500    0.4591254   0.31608411   0.68731073   -5.1544834   -4.4671726 
   40600   0.45652094   0.29525893   0.68341185   -5.1513639    -4.467952 
   40700    0.4710688   0.16416776      0.70519   -5.1713369    -4.466147 
   40800   0.46874724   0.12274611   0.70171462   -5.1670464   -4.4653318 
   40900   0.47862384  0.038342227   0.71649989   -5.1814042   -4.4649043 
   41000    0.4671472  0.060814425   0.69931936   -5.1642888   -4.4649694 
   41100   0.46479449  0.023170399   0.69579735   -5.1600204    -4.464223 
   41200    0.4552771 -0.0046501658   0.68154982   -5.1452869    -4.463737 
   41300   0.45260855 -0.072705097     0.677555   -5.1416147   -4.4640597 
   41400   0.44861757  -0.09753375    0.6715805   -5.1350859   -4.4635054 
   41500   0.44725935  -0.10623212   0.66954724   -5.1323047   -4.4627574 
   41600   0.45167041  -0.14191686    0.6761506   -5.1393013   -4.4631507 
   41700   0.46374367  -0.21101024   0.69422428   -5.1578687   -4.4636444 
   41800   0.45397499  -0.15182282   0.67960056   -5.1439637   -4.4643631 
   41900   0.45447744  -0.10789841   0.68035273   -5.1451143   -4.4647616 
   42000   0.45668842 -0.050154419   0.68366257   -5.1486508   -4.4649882 
   42100   0.47394484 -0.041491058   0.70949542   -5.1739342   -4.4644388 
   42200   0.45867479   0.16173821   0.68663616   -5.1522176   -4.4655814 
   42300   0.46693669   0.24653689   0.69900422   -5.1654759   -4.4664717 
   42400   0.47290173   0.30056514    0.7079339   -5.1747319    -4.466798 
   42500   0.45759589   0.43385542   0.68502105   -5.1528335   -4.4678125 
   42600   0.46846847   0.39484422   0.70129729   -5.1695359   -4.4682386 
   42700   0.45703163   0.45113169   0.68417635   -5.1539133   -4.4697369 
   42800   0.46796321   0.36494165   0.70054093   -5.1700824   -4.4695415 
   42900   0.46560756   0.37527967   0.69701451   -5.1661644   -4.4691499 
   43000   0.44259696   0.51745568   0.66256765   -5.1305747   -4.4680071 
   43100   0.46581035   0.39196494   0.69731809   -5.1649635   -4.4676454 
   43200   0.48401692   0.27165348   0.72457332    -5.192259   -4.4676857 
   43300    0.4809822   0.25998212   0.72003035   -5.1874536   -4.4674233 
   43400   0.46379113    0.3305707   0.69429533   -5.1607393    -4.466444 
   43500   0.46355396   0.25902909   0.69394028   -5.1595377   -4.4655974 
   43600   0.48286452  0.041728051   0.72284818     -5.18786   -4.4650118 
   43700   0.46793483  0.054986702   0.70049845   -5.1644379   -4.4639395 
   43800   0.46896341 0.0044412648   0.70203822   -5.1671531   -4.4651149 
   43900   0.44654248   0.11173083    0.6684741    -5.132832   -4.4643579 
   44000   0.46049723  0.023878346   0.68936435   -5.1530073   -4.4636429 
   44100   0.47194503 -0.083227435   0.70650171   -5.1698517     -4.46335 
   44200    0.4565682  -0.01456406    0.6834826   -5.1468017   -4.4633191 
   44300    0.4508377  0.011614213   0.67490403   -5.1387443   -4.4638403 
   44400   0.45371026 -0.026956063   0.67920426    -5.142819   -4.4636147 
   44500   0.45037287 -0.025829492   0.67420818   -5.1375294   -4.4633212 
   44600    0.4402059  0.008254553   0.65898823      -5.1227   -4.4637118 
   44700   0.45028056 -0.047083784      0.67407   -5.1385643   -4.4644943 
   44800   0.46978137  -0.07133205   0.70326271    -5.167432   -4.4641693 
   44900   0.45071545   0.13316289   0.67472103   -5.1390517   -4.4643306 
   45000   0.45089085   0.20088925    0.6749836   -5.1397394   -4.4647558 
   45100   0.46129301   0.17554546   0.69055564   -5.1560636    -4.465508 
   45200   0.46396833   0.18389802    0.6945606   -5.1594149   -4.4648543 
   45300   0.47570966   0.15734887   0.71213737   -5.1771547   -4.4650174 
   45400   0.46048261   0.25410109   0.68934247   -5.1547134   -4.4653709 
   45500   0.45593217   0.26704737   0.68253046   -5.1469884   -4.4644579 
   45600   0.46308058   0.21236226   0.69323162   -5.1575877   -4.4643561 
   45700   0.45219311   0.25325423   0.67693308   -5.1414909   -4.4645578 
   45800   0.43835905   0.29589154   0.65622349   -5.1204223   -4.4641988 
   45900   0.44074918   0.21566305   0.65980152    -5.122896   -4.4630945 
   46000   0.44949056   0.10884484   0.67288737   -5.1355204    -4.462633 
   46100   0.45214047  0.066827832   0.67685428   -5.1401046   -4.4632503 
   46200   0.45991703 0.00075071173    0.6884958   -5.1522678    -4.463772 
   46300   0.46984668 -0.024373592   0.70336048   -5.1674615    -4.464101 
   46400    0.4525748   0.14366307   0.67750447   -5.1417673   -4.4642629 
   46500   0.45415079   0.19958849   0.67986373    -5.143833   -4.4639692 
   46600   0.46586961    0.1375162   0.69740681   -5.1609178    -4.463511 
   46700   0.47872353 0.0093940853   0.71664912   -5.1799318   -4.4632826 
   46800   0.46844734  0.032463478   0.70126568   -5.1650931   -4.4638275 
   46900   0.44047441    0.1624153   0.65939019   -5.1239017   -4.4645115 
   47000   0.44169562  0.094832736   0.66121835   -5.1251436   -4.4639252 
   47100   0.43769174   0.05467864   0.65522454   -5.1196778   -4.4644532 
   47200   0.43956386   0.03172269    0.6580271   -5.1224306   -4.4644035 
   47300   0.43719516  0.054867545   0.65448115   -5.1192431    -4.464762 
   47400   0.44305908  0.031563185   0.66325944   -5.1273022   -4.4640428 
   47500   0.45081508  0.014019446   0.67487017   -5.1387509   -4.4638807 
   47600   0.44053133   0.10696274   0.65947541    -5.123421   -4.4639456 
   47700   0.44408277   0.11736687    0.6647919   -5.1288352   -4.4640433 
   47800   0.44208088   0.12752704   0.66179508   -5.1257094   -4.4639143 
   47900   0.45338046  0.029953658   0.67871055   -5.1426608   -4.4639503 
   48000   0.46292538 -0.046934959   0.69299929   -5.1575058   -4.4645065 
   48100   0.46274659 -0.030978526   0.69273164   -5.1569442   -4.4642126 
   48200   0.46009751 0.0057402485   0.68876598   -5.1529468   -4.4641808 
   48300   0.44390834   0.12896047   0.66453078   -5.1287448    -4.464214 
   48400   0.45101087   0.13393297   0.67516328   -5.1395384   -4.4643751 
   48500   0.44773737   0.18869148   0.67026284   -5.1348421   -4.4645793 
   48600    0.4539136   0.20373897   0.67950866   -5.1450898   -4.4655811 
   48700   0.46780438   0.17941601   0.70030316    -5.166728   -4.4664248 
   48800   0.45482759   0.29479525    0.6808769   -5.1475971   -4.4667202 
   48900   0.44488145   0.36090839   0.66598753   -5.1334285    -4.467441 
   49000   0.44813095   0.34935632   0.67085203   -5.1377017   -4.4668497 
   49100   0.43951415   0.39470923   0.65795268   -5.1245457    -4.466593 
   49200   0.46557246   0.25280679   0.69696197   -5.1628691   -4.4659071 
   49300   0.45762931   0.26432918   0.68507107   -5.1502587   -4.4651876 
   49400    0.4656793   0.16382096   0.69712191   -5.1622404   -4.4651185 
   49500   0.48690804  -0.03805634   0.72890133   -5.1934338   -4.4645324 
   49600   0.47488742 -0.030260532   0.71090646   -5.1757948   -4.4648884 
   49700    0.4492619   0.11559162   0.67254506   -5.1378268   -4.4652817 
   49800    0.4562834  0.084489371   0.68305624   -5.1475838   -4.4645276 
   49900   0.46389946  0.050204009   0.69445749    -5.158365   -4.4639076 
   50000   0.45316477   0.11091377   0.67838766   -5.1427538   -4.4643662 
   50100   0.45343813    0.1075317   0.67879689    -5.143033   -4.4642361 
   50200   0.44345452    0.1635058   0.66385142   -5.1279893   -4.4641379 
   50300   0.45563396    0.1113666   0.68208404   -5.1460961   -4.4640121 
   50400   0.45386907   0.10850887     0.679442   -5.1434268   -4.4639848 
   50500   0.44819768   0.11824533   0.67095193   -5.1342175   -4.4632656 
   50600   0.44049158   0.11384044   0.65941589   -5.1224137   -4.4629978 
   50700   0.43588888  0.092839742   0.65252565   -5.1150006    -4.462475 
   50800   0.45065695 -0.016483937   0.67463346   -5.1375959   -4.4629624 
   50900   0.45319968 -0.047119947   0.67843993    -5.140909   -4.4624691 
   51000   0.47655303  -0.15718923   0.71339988   -5.1760196   -4.4626197 
   51100   0.44192493  0.057324476   0.66156162   -5.1237556    -4.462194 
   51200   0.44956066  0.027079197   0.67299231   -5.1363719   -4.4633796 
   51300   0.44982149   0.01956623   0.67338277   -5.1365652   -4.4631824 
   51400   0.45560374 -0.022527299    0.6820388   -5.1465288     -4.46449 
   51500   0.47480185  -0.11380258   0.71077837   -5.1754636   -4.4646852 
   51600   0.43833833   0.12530669   0.65619249   -5.1222511   -4.4660586 
   51700   0.45122202   0.10433102   0.67547936   -5.1415035   -4.4660242 
   51800   0.46729748  0.020559947   0.69954433   -5.1651419   -4.4655976 
   51900   0.47262107 -0.015063018   0.70751374   -5.1728503   -4.4653366 
   52000   0.47176525 0.0076231429   0.70623258   -5.1724184   -4.4661858 
   52100   0.46997937  0.081306559   0.70355912   -5.1701322   -4.4665731 
   52200    0.4894676  0.066621953     0.732733    -5.199274    -4.466541 
   52300    0.4744705   0.22545862   0.71028233   -5.1764997   -4.4662173 
   52400   0.46071086   0.35285942   0.68968416   -5.1569133   -4.4672292 
   52500   0.45603701   0.40532262   0.68268741   -5.1496235   -4.4669361 
   52600   0.45573787   0.39054238    0.6822396   -5.1480673   -4.4658277 
   52700   0.48749128    0.1726701   0.72977445      -5.1958   -4.4660256 
   52800    0.4736241   0.20556282   0.70901528   -5.1750415   -4.4660262 
   52900   0.46275572   0.20877673   0.69274531   -5.1576366   -4.4648913 
   53000   0.47315638    0.0634175   0.70831511   -5.1732169   -4.4649018 
   53100   0.47262242  0.008955887   0.70751577   -5.1728741   -4.4653584 
   53200   0.45593201   0.10031154   0.68253022   -5.1479248   -4.4653946 
   53300   0.46277226  0.073031308   0.69277008   -5.1579685   -4.4651985 
   53400   0.48204289 -0.012092807    0.7216182   -5.1876279   -4.4660097 
   53500   0.46438178   0.11201096   0.69517953   -5.1616129   -4.4664334 
   53600   0.47768753  0.066558398   0.71509823   -5.1806167   -4.4655185 
   53700   0.45882425   0.18350566    0.6868599   -5.1529986   -4.4661387 
   53800   0.45010508   0.23570674    0.6738073    -5.139586   -4.4657787 
   53900   0.46086612   0.12829321   0.68991658   -5.1547196    -4.464803 
   54000   0.44769621   0.13726558   0.67020122   -5.1346454   -4.4644442 
   54100   0.44729721   0.11115243   0.66960392   -5.1342774   -4.4646735 
   54200   0.44462963  0.094328808   0.66561056   -5.1310654   -4.4654549 
   54300   0.47158682 -0.054116143   0.70596547   -5.1713885    -4.465423 
   54400   0.44942789  0.052689718   0.67279356   -5.1374649   -4.4646714 
   54500   0.45798763 -0.027160591   0.68560749   -5.1494313   -4.4638238 
   54600   0.45398544  -0.05327215    0.6796162   -5.1445163   -4.4649001 
   54700   0.45733377   -0.1097596   0.68462865   -5.1497253   -4.4650966 
   54800    0.4656823  -0.15714852    0.6971264   -5.1629421   -4.4658157 
   54900   0.43918453  0.023556106   0.65745924     -5.12333   -4.4658707 
   55000   0.44395912  0.053909885   0.66460681   -5.1298566   -4.4652498 
   55100   0.43514325   0.13774358   0.65140945   -5.1179301   -4.4665207 
   55200   0.45676314  0.049123932   0.68377442   -5.1500052   -4.4662308 
   55300   0.45908296  0.054319812   0.68724719   -5.1533148   -4.4660676 
   55400   0.45534365   0.10162846   0.68164945   -5.1474989   -4.4658495 
   55500   0.43860274   0.24802971   0.65658831   -5.1216866   -4.4650983 
   55600   0.45786461   0.21666782   0.68542333   -5.1513663   -4.4659429 
   55700   0.46604446   0.21563718   0.69766856    -5.164686   -4.4670175 
   55800   0.46269828   0.25205533   0.69265933   -5.1594815   -4.4668222 
   55900   0.45950585   0.25091553   0.68788026     -5.15444   -4.4665597 
   56000   0.46336914    0.1850403    0.6936636   -5.1605232   -4.4668596 
   56100   0.46334643   0.12872068   0.69362961   -5.1607812   -4.4671515 
   56200   0.46047508   0.11764538    0.6893312   -5.1566476   -4.4673164 
   56300    0.4660807   0.08746752   0.69772281   -5.1651444   -4.4674216 
   56400   0.46698275  0.080658255   0.69907318   -5.1670525   -4.4679794 
   56500   0.45446881   0.15384173   0.68033981   -5.1491916   -4.4688518 
   56600   0.46778402   0.13417512   0.70027269   -5.1694517    -4.469179 
   56700    0.4731726   0.18972272   0.70833938   -5.1773475   -4.4690081 
   56800   0.47250173    0.2758373   0.70733509    -5.176898    -4.469563 
   56900   0.48022209   0.29843289   0.71889247   -5.1877746   -4.4688821 
   57000   0.46573857   0.41551695   0.69721063   -5.1668102   -4.4695995 
   57100   0.47899116   0.35397009   0.71704977   -5.1855407   -4.4684909 
   57200   0.48094499   0.31575589   0.71997465   -5.1879733   -4.4679987 
   57300   0.46477656   0.34737774   0.69577052   -5.1636405     -4.46787 
   57400   0.46907884   0.25411297   0.70221103   -5.1697546   -4.4675436 
   57500   0.45249385   0.23422377    0.6773833   -5.1445026   -4.4671193 
   57600   0.44965583   0.12883388   0.67313478   -5.1399587    -4.466824 
   57700   0.45831386 -0.037101312   0.68609586   -5.1526872   -4.4665913 
   57800   0.47048338  -0.14190583   0.70431362   -5.1693387   -4.4650251 
   57900   0.43977617  0.023495663   0.65834492   -5.1234671   -4.4651221 
   58000   0.46401492 -0.090204975   0.69463034     -5.15953   -4.4648997 
   58100   0.44659791  0.033853736   0.66855708   -5.1331306   -4.4645735 
   58200   0.44963758  0.067959152   0.67310746   -5.1378676   -4.4647601 
   58300    0.4623771  0.025996751   0.69217851   -5.1570688   -4.4648902 
   58400   0.46545515 0.0066014657   0.69678636   -5.1626559   -4.4658695 
   58500   0.47593127 -0.023254139   0.71246911   -5.1780784   -4.4656093 
   58600    0.4762028  0.028628297    0.7128756     -5.17875   -4.4658744 
   58700   0.48056472  0.069584844   0.71940539   -5.1847624    -4.465357 
   58800   0.46101435   0.21724199   0.69013848   -5.1562426   -4.4661042 
   58900   0.44018107   0.35541296   0.65895106   -5.1266835   -4.4677324 
   59000   0.46958243   0.24646067    0.7029649    -5.171385   -4.4684201 
   59100   0.46997403   0.27024868   0.70355112   -5.1736354   -4.4700843 
   59200    0.4656184   0.34434133   0.69703074   -5.1672823   -4.4702515 
   59300   0.46671233   0.41428099   0.69866835   -5.1689856   -4.4703173 
   59400     0.475633   0.41917302    0.7120226   -5.1830577   -4.4710351 
   59500    0.4839262   0.41561461   0.72443753   -5.1955346   -4.4710971 
   59600   0.46892217   0.51239748   0.70197649   -5.1732372   -4.4712607 
   59700   0.48692721   0.37161387   0.72893003   -5.1988863   -4.4699563 
   59800   0.48855385    0.2952669   0.73136511   -5.1997821    -4.468417 
   59900   0.47254292   0.30279797   0.70739675   -5.1757789   -4.4683822 
   60000   0.48172131   0.19532293    0.7211368   -5.1893867   -4.4682499 
   60100    0.4575876   0.28343126   0.68500864   -5.1525077    -4.467499 
   60200   0.45312516   0.25310998   0.67832837    -5.145174   -4.4668456 
   60300   0.46078995   0.11700632   0.68980256   -5.1556685    -4.465866 
   60400   0.47909969 -0.086855338   0.71721224   -5.1816782    -4.464466 
   60500   0.47358397  -0.17942447   0.70895521   -5.1729998   -4.4640446 
   60600   0.47094641  -0.25619935   0.70500677   -5.1683688    -4.463362 
   60700   0.44979837  -0.21787843   0.67334817   -5.1364478   -4.4630996 
   60800   0.45113889  -0.25052494   0.67535492    -5.138126   -4.4627711 
   60900   0.44815238  -0.22031332   0.67088412   -5.1335623   -4.4626782 
   61000   0.45270292  -0.22842755   0.67769627    -5.139333   -4.4616368 
   61100   0.43612349  -0.14767002   0.65287686    -5.115101   -4.4622242 
   61200    0.4458495  -0.15342604    0.6674367   -5.1294985   -4.4620619 
   61300   0.42730263 0.00098539132   0.63967203   -5.1020346   -4.4623626 
   61400   0.43453668  0.052725369   0.65050141   -5.1139429   -4.4634415 
   61500   0.44224494  0.092499034   0.66204067   -5.1270788   -4.4650382 
   61600   0.45839668  0.085384937   0.68621984   -5.1524949   -4.4662751 
   61700   0.45273221   0.17836706   0.67774012   -5.1439784   -4.4662382 
   61800   0.47553889   0.12517249   0.71188172   -5.1789992   -4.4671175 
   61900    0.4841718    0.1405203   0.72480519   -5.1919883   -4.4671831 
   62000   0.47462069   0.23794816   0.71050718   -5.1786034   -4.4680962 
   62100   0.45195675   0.42147845   0.67657926   -5.1450328   -4.4684536 
   62200   0.46778831   0.39711147    0.7002791   -5.1695466   -4.4692675 
   62300   0.46631528   0.43118209   0.69807397   -5.1672752   -4.4692012 
   62400   0.48358325   0.35053236   0.72392413   -5.1931261    -4.469202 
   62500   0.47954693   0.39443654   0.71788176   -5.1871156   -4.4692338 
   62600    0.4689031   0.50228988   0.70194794   -5.1700709   -4.4681229 
   62700   0.46831352   0.51200064   0.70106534    -5.169519   -4.4684536 
   62800   0.48033613   0.38052613   0.71906318    -5.186992   -4.4679288 
   62900    0.4620532   0.38008514   0.69169364   -5.1592661   -4.4675725 
   63000   0.46543257   0.28903783   0.69675255   -5.1639049   -4.4671524 
   63100   0.47490223   0.13026736   0.71092864   -5.1770365   -4.4661079 
   63200    0.4810034 -0.019238297   0.72006209    -5.184409   -4.4643469 
   63300   0.46246062  -0.03496553   0.69230355   -5.1563374   -4.4640338 
   63400   0.44760586 -0.045211028   0.67006598   -5.1335142   -4.4634482 
   63500   0.43537683 -0.054740909   0.65175912   -5.1142672   -4.4625081 
   63600   0.45309271  -0.19010306   0.67827978   -5.1410209   -4.4627412 
   63700   0.44679379  -0.17891143    0.6688503   -5.1316563    -4.462806 
   63800   0.43134872  -0.13225895   0.64572903   -5.1082995   -4.4625705 
   63900   0.43368645  -0.16703988   0.64922861   -5.1115406    -4.462312 
   64000    0.4352279  -0.17223816   0.65153617   -5.1145055   -4.4629693 
   64100   0.45945226   -0.2634854   0.68780004   -5.1514394   -4.4636394 
   64200   0.44397903 -0.096565448    0.6646366   -5.1290589   -4.4644223 
   64300    0.4372737  0.042341072   0.65459873   -5.1197396   -4.4651409 
   64400   0.45154182  0.071576196   0.67595811    -5.141916   -4.4659578 
   64500   0.45042424   0.18287754   0.67428508   -5.1406687   -4.4663836 
   64600   0.46240944   0.22120069   0.69222693   -5.1585352   -4.4663083 
   64700    0.4837926   0.19231872   0.72423752   -5.1906108   -4.4663733 
   64800   0.49621226   0.19047357   0.74282975   -5.2095809   -4.4667512 
   64900   0.49570919   0.25630128   0.74207666   -5.2096458   -4.4675692 
   65000   0.47096915   0.42487818   0.70504082   -5.1730478    -4.468007 
   65100   0.49463489   0.30986679   0.74046842    -5.208378   -4.4679096 
   65200   0.49413932   0.30769379   0.73972656   -5.2074722   -4.4677456 
   65300   0.47991302   0.36485181   0.71842979   -5.1853272   -4.4668975 
   65400   0.46604602   0.40261571   0.69767089   -5.1649268   -4.4672559 
   65500   0.45890581   0.36813597     0.686982   -5.1548111   -4.4678291 
   65600   0.46611913   0.22233318   0.69778034    -5.163721   -4.4659407 
   65700   0.46035777   0.17423385   0.68915558   -5.1538495   -4.4646939 
   65800   0.44870527   0.16328177   0.67171179   -5.1373511   -4.4656394 
   65900   0.46753549 0.00067840013   0.69990062   -5.1645333   -4.4646327 
   66000   0.45360856  0.020169739   0.67905202   -5.1436855   -4.4646335 
   66100   0.45263073 -0.017549393    0.6775882   -5.1421259   -4.4645377 
   66200    0.4532518 -0.026518161   0.67851795   -5.1430212   -4.4645033 
   66300   0.44300914  0.016714247   0.66318469   -5.1273936    -4.464209 
   66400   0.45090862 -0.058195346    0.6750102   -5.1392195   -4.4642093 
   66500   0.46257579  -0.12108978   0.69247596   -5.1556833   -4.4632073 
   66600   0.43633369  0.026047744   0.65319154   -5.1166187   -4.4634272 
   66700   0.44230384 -0.0022644043   0.66212885   -5.1255561   -4.4634272 
   66800   0.44714782 -0.051126586   0.66938029   -5.1338832    -4.464503 
   66900   0.44521232 -0.070614377   0.66648285   -5.1300935   -4.4636106 
   67000   0.45501934 -0.098074379   0.68116395   -5.1444178   -4.4632539 
   67100   0.45960902 -0.057385225   0.68803471   -5.1516476   -4.4636129 
   67200   0.48887595  -0.14985514    0.7318473   -5.1958839   -4.4640366 
   67300    0.4884079 -0.055120628   0.73114663   -5.1957698   -4.4646232 
   67400   0.47014485   0.13165698   0.70380684     -5.16879   -4.4649831 
   67500   0.45326062   0.23739398   0.67853114   -5.1434812     -4.46495 
   67600   0.45588195   0.20908796   0.68245528    -5.147569   -4.4651137 
   67700   0.46073399   0.14824415   0.68971879   -5.1552892   -4.4655705 
   67800   0.47143901  0.073148429    0.7057442   -5.1712175   -4.4654733 
   67900   0.45731463   0.17481714       0.6846   -5.1506923   -4.4660923 
   68000   0.46202367    0.1592842   0.69164943   -5.1572213   -4.4655719 
   68100   0.45917586   0.19671837   0.68738626   -5.1539059   -4.4665196 
   68200    0.4669075   0.18030466   0.69896053   -5.1661003   -4.4671398 
   68300   0.46889829   0.17205228   0.70194075    -5.168918   -4.4669772 
   68400   0.46295291   0.21217946    0.6930405   -5.1603096   -4.4672691 
   68500   0.46881604   0.16730346   0.70181762   -5.1681726    -4.466355 
   68600   0.47309034   0.10585197   0.70821624   -5.1751263   -4.4669101 
   68700   0.46183673  0.096816595   0.69136958   -5.1580185   -4.4666489 
   68800   0.47752693 -0.077656354   0.71485781   -5.1814743   -4.4666165 
   68900   0.46780238 -0.082593986   0.70030016   -5.1658378   -4.4655376 
   69000   0.45291201 0.0059405552   0.67800928   -5.1435475   -4.4655382 
   69100   0.45858375  0.035026236   0.68649987   -5.1524396   -4.4659397 
   69200   0.45749128   0.11574429   0.68486445   -5.1513907   -4.4665263 
   69300   0.46534341   0.15096142   0.69661909   -5.1629831    -4.466364 
   69400   0.45454691   0.26582975   0.68045673   -5.1469507   -4.4664939 
   69500   0.45635938   0.28063911   0.68316999    -5.149534    -4.466364 
   69600   0.46782704   0.18372279   0.70033708    -5.166017     -4.46568 
   69700   0.47212972   0.12328166   0.70677818   -5.1713202    -4.464542 
   69800   0.44575997   0.23882015   0.66730268   -5.1329179   -4.4656153 
   69900   0.45722087   0.18655221   0.68445964   -5.1497168   -4.4652571 
   70000   0.47067775    0.1129114   0.70460459   -5.1707807   -4.4661761 
   70100    0.4728362   0.11924894   0.70783579   -5.1744406   -4.4666048 
   70200   0.47619788   0.12932217   0.71286822   -5.1780685   -4.4652003 
   70300    0.4780456   0.13392137   0.71563426   -5.1817162   -4.4660819 
   70400   0.47451711   0.16117792   0.71035211   -5.1766606   -4.4663085 
   70500   0.46138766   0.20465153   0.69069733   -5.1575926   -4.4668953 
   70600   0.45700928   0.14621469   0.68414289   -5.1507764   -4.4666335 
   70700   0.46782613  0.017942314   0.70033572   -5.1668387   -4.4665029 
   70800   0.47457861 -0.055829653   0.71044417   -5.1769141     -4.46647 
   70900   0.45630926   0.03925496   0.68309496   -5.1490734   -4.4659784 
   71000   0.44536944   0.10777809   0.66671805   -5.1316784   -4.4649603 
   71100   0.46738846 -0.0059393391   0.69968052   -5.1650657   -4.4653851 
   71200   0.45583903  0.081517243   0.68239103   -5.1478105   -4.4654195 
   71300   0.46313271  0.080846499   0.69330967   -5.1587951   -4.4654855 
   71400    0.4576199   0.11654576   0.68505698   -5.1514227   -4.4663657 
   71500   0.44362205    0.2136785    0.6641022   -5.1310575   -4.4669553 
   71600   0.44850086   0.19046277   0.67140579    -5.138564   -4.4671582 
   71700   0.46839892  0.063423914   0.70119319   -5.1679272    -4.466734 
   71800   0.47493056  0.028874001   0.71097104   -5.1767656   -4.4657946 
   71900   0.45460057   0.15728724   0.68053706   -5.1468859   -4.4663488 
   72000   0.45680393   0.14493585   0.68383549   -5.1503802   -4.4665447 
   72100    0.4621288  0.091616259   0.69180682   -5.1575682   -4.4657613 
   72200   0.47740172 0.0033174655   0.71467037   -5.1795511   -4.4648807 
   72300   0.47239671  0.044085484   0.70717788   -5.1711471   -4.4639692 
   72400   0.45078907   0.14827568   0.67483123   -5.1383093    -4.463478 
   72500   0.46214802   0.04584759   0.69183559   -5.1562289   -4.4643933 
   72600   0.47305183 -0.038778401   0.70815858   -5.1737598   -4.4656013 
   72700   0.44362204    0.1112904   0.66410219   -5.1304202    -4.466318 
   72800   0.45885653  0.048149556   0.68690823   -5.1530279   -4.4661197 
   72900   0.46872345  0.017123895   0.70167901   -5.1679609   -4.4662819 
   73000   0.46072061  0.061068876   0.68969875   -5.1563698   -4.4666711 
   73100   0.46372867  0.043257439   0.69420182   -5.1610645   -4.4668627 
   73200   0.46198128  0.055568673   0.69158597   -5.1594888   -4.4679028 
   73300   0.44259373   0.15904544   0.66256282    -5.129677   -4.4671141 
   73400   0.47032982  0.048884537   0.70408374   -5.1712344   -4.4671507 
   73500   0.46038631   0.16839637    0.6891983   -5.1571605   -4.4679621 
   73600   0.46718846   0.18520574   0.69938113   -5.1674087   -4.4680276 
   73700   0.47121431   0.16783491   0.70540781   -5.1739888    -4.468581 
   73800   0.46649062   0.18498198   0.69833646   -5.1668818   -4.4685453 
   73900   0.48943212  0.057730002   0.73267988   -5.1996931   -4.4670132 
   74000   0.47151302    0.1401137   0.70585499   -5.1726714   -4.4668164 
   74100   0.45758967   0.20815089   0.68501173   -5.1522443   -4.4672325 
   74200   0.47755716   0.11128216   0.71490307   -5.1825266   -4.4676235 
   74300   0.46853703   0.17883142   0.70139994   -5.1695111   -4.4681112 
   74400   0.47231356   0.19401053    0.7070534   -5.1743795   -4.4673261 
   74500   0.45789537   0.25933247   0.68546937    -5.152113   -4.4666437 
   74600    0.4563173   0.22236656     0.683107   -5.1484131   -4.4653061 
   74700   0.46765298   0.11193379   0.70007651    -5.165575   -4.4654985 
   74800   0.48108284 0.0091206154   0.72018101   -5.1863361   -4.4661551 
   74900   0.45697135   0.15165738   0.68408611   -5.1501389   -4.4660528 
   75000   0.47938363  0.049776545   0.71763729   -5.1837909   -4.4661536 
   75100   0.48608202  0.013270761   0.72766479   -5.1944109   -4.4667462 
   75200   0.47667561   0.11257492   0.71358338   -5.1800434     -4.46646 
   75300   0.48247534   0.13688576   0.72226559   -5.1883671   -4.4661015 
   75400     0.464112   0.23353067   0.69477566   -5.1614316   -4.4666559 
   75500   0.46534472   0.20439632   0.69662104   -5.1629893   -4.4663683 
   75600   0.47491038  0.087364435   0.71094084   -5.1764603   -4.4655195 
   75700   0.47577167 0.0070360252   0.71223019   -5.1777178   -4.4654876 
   75800    0.4517471  0.079503851   0.67626541   -5.1428279   -4.4665625 
   75900   0.46245986 -0.013024577   0.69230241   -5.1589308   -4.4666284 
   76000   0.47397986  -0.10361987   0.70954785   -5.1767076   -4.4671598 
   76100    0.4736178  -0.10053496   0.70900585   -5.1758062   -4.4668004 
   76200   0.47626071 -0.065903863   0.71296228   -5.1800221   -4.4670598 
   76300   0.46909957  0.063370129   0.70224206   -5.1687139   -4.4664718 
   76400   0.47371952   0.11196883   0.70915811   -5.1758281   -4.4666699 
   76500   0.47218368   0.14696789   0.70685897   -5.1738231   -4.4669642 
   76600    0.4734594     0.167366   0.70876872   -5.1754722   -4.4667035 
   76700   0.45316675   0.31873287   0.67839063   -5.1453836   -4.4669929 
   76800   0.45511781   0.29421425   0.68131137   -5.1488252   -4.4675139 
   76900   0.47130496   0.17422143   0.70554353   -5.1730269   -4.4674834 
   77000      0.46309   0.18903145   0.69324573   -5.1602091   -4.4669634 
   77100   0.48542051   0.04770705    0.7266745   -5.1928882   -4.4662137 
   77200   0.48871136  0.040815176    0.7316009   -5.1986291   -4.4670282 
   77300   0.46576919   0.19528168   0.69725647   -5.1637968   -4.4665404 
   77400   0.47851753   0.12918192   0.71634075   -5.1827228    -4.466382 
   77500   0.47742947   0.10766048   0.71471192   -5.1817131   -4.4670012 
   77600    0.4771459  0.077479843   0.71428741   -5.1811552   -4.4668678 
   77700   0.46690642   0.12545665   0.69895892   -5.1657633   -4.4668044 
   77800   0.46881347   0.12759492   0.70181376   -5.1684873   -4.4666735 
   77900   0.46444054   0.16890596   0.69526749   -5.1619072   -4.4666397 
   78000   0.46718494   0.19094798   0.69937586   -5.1649718    -4.465596 
   78100   0.46732139   0.17639407   0.69958012   -5.1656706   -4.4660904 
   78200   0.45214064   0.19703105   0.67685453   -5.1419092   -4.4650547 
   78300   0.45565128    0.1334816   0.68210997   -5.1474596   -4.4653496 
   78400   0.44451028   0.16630055   0.66543189   -5.1312712   -4.4658393 
   78500   0.46157856  0.070876836   0.69098311   -5.1570198   -4.4660367 
   78600   0.48358571 -0.0045819608    0.7239278   -5.1896068    -4.465679 
   78700   0.45415985   0.19443095    0.6798773   -5.1453638   -4.4654865 
   78800   0.44249744   0.22227687   0.66241866   -5.1286559   -4.4662372 
   78900   0.46337667 -0.014550218   0.69367487   -5.1592906   -4.4656157 
   79000   0.48197348  -0.20855685    0.7215143   -5.1874514   -4.4659371 
   79100   0.46080203  -0.11896665   0.68982065   -5.1566089   -4.4667883 
   79200   0.45181129 -0.041135354    0.6763615   -5.1428233   -4.4664618 
   79300   0.44075736   0.03550513   0.65981376   -5.1254038   -4.4655901 
   79400   0.46654961  -0.06789948   0.69842477   -5.1642783   -4.4658536 
   79500   0.45802489   0.02139131   0.68566326   -5.1513201   -4.4656568 
   79600   0.45569236  0.092414578   0.68217147   -5.1481227   -4.4659512 
   79700   0.46999927  0.045917008    0.7035889   -5.1703241   -4.4667352 
   79800   0.47634991  0.030748406   0.71309581   -5.1795691   -4.4664733 
   79900   0.46687636   0.11488253   0.69891391   -5.1659755   -4.4670616 
   80000     0.470112   0.14357634   0.70375766   -5.1704268   -4.4666691 
   80100   0.46990999   0.18339987   0.70345525   -5.1692391   -4.4657838 
   80200   0.45569203   0.27898766   0.68217097   -5.1482802   -4.4661092 
   80300   0.48215668   0.14597328   0.72178854   -5.1882633   -4.4664748 
   80400   0.46404204   0.26028859   0.69467093   -5.1615338   -4.4668629 
   80500   0.46664897   0.27690968   0.69857351   -5.1652371   -4.4666636 
   80600   0.47121702   0.26451142   0.70541187   -5.1719783   -4.4665664 
   80700   0.45204952   0.36079355   0.67671813   -5.1438418   -4.4671236 
   80800   0.48794411   0.15475163   0.73045233   -5.1970556   -4.4666032 
   80900   0.48075964   0.19476005   0.71969719   -5.1870383   -4.4673411 
   81000   0.48998868   0.15458185   0.73351305   -5.2002847   -4.4667716 
   81100   0.48528999   0.18858982   0.72647911   -5.1929913   -4.4665122 
   81200   0.47182019   0.28320548   0.70631483   -5.1724335   -4.4661187 
   81300   0.46489548   0.31000156   0.69594853    -5.162949   -4.4670005 
   81400   0.46046689   0.27494112   0.68931893   -5.1561206   -4.4668017 
   81500   0.46649687   0.18663136   0.69834582   -5.1641684   -4.4658225 
   81600   0.47095945    0.1000256   0.70502629   -5.1702593    -4.465233 
   81700   0.48118537 -0.0092656637    0.7203345    -5.185792   -4.4654575 
   81800   0.46297951  0.037792161   0.69308033   -5.1587065   -4.4656262 
   81900   0.48209586  -0.08225394    0.7216975    -5.187383   -4.4656855 
   82000   0.45291461  0.077428427   0.67801317   -5.1434397   -4.4654265 
   82100   0.44268362   0.13588122   0.66269737   -5.1287804    -4.466083 
   82200   0.47255837 -0.022122321   0.70741987   -5.1729148   -4.4654949 
   82300   0.46285918  0.030935566    0.6929002    -5.158236   -4.4653358 
   82400   0.47360109 -0.0033501311   0.70898083   -5.1739919    -4.465011 
   82500   0.47839433 0.0022023506   0.71615632   -5.1807103    -4.464554 
   82600   0.45551439    0.1151894   0.68190505   -5.1469142   -4.4650092 
   82700   0.46128304  0.053663424   0.69054071   -5.1560378   -4.4654971 
   82800   0.46894622 -0.026961514   0.70201249   -5.1686729   -4.4666604 
   82900   0.47862187 -0.067657913   0.71649694   -5.1834131   -4.4669162 
   83000    0.4617631  0.085766857   0.69125936   -5.1587612   -4.4675019 
   83100   0.46885914   0.12766017   0.70188214   -5.1697455   -4.4678634 
   83200   0.46192477   0.20685584   0.69150138   -5.1591799   -4.4676785 
   83300   0.45927703   0.25725343   0.68753771   -5.1545309   -4.4669932 
   83400   0.47312924   0.21191943   0.70827447   -5.1749742   -4.4666997 
   83500   0.49268274   0.15440218   0.73754606    -5.203983   -4.4664369 
   83600   0.49672507   0.20130932   0.74359743   -5.2114712   -4.4678738 
   83700   0.49473937   0.26686448   0.74062483   -5.2091826   -4.4685577 
   83800   0.47392782   0.39851654   0.70946995   -5.1795942   -4.4701242 
   83900   0.46433222   0.44043827   0.69510534   -5.1650029   -4.4698975 
   84000   0.48565211     0.298839    0.7270212    -5.196585   -4.4695638 
   84100   0.47230242   0.33743426   0.70703673   -5.1766952   -4.4696584 
   84200    0.4788275   0.30106904   0.71680477   -5.1864304   -4.4696256 
   84300   0.46523902   0.37293864   0.69646282   -5.1652052   -4.4687424 
   84400   0.47575566   0.30277116   0.71220623   -5.1804231   -4.4682169 
   84500   0.49458118   0.12402365   0.74038803   -5.2084055   -4.4680174 
   84600   0.48501505  0.081653844   0.72606753   -5.1935921   -4.4675245 
   84700   0.46716821  0.077486951   0.69935081   -5.1658635   -4.4665127 
   84800   0.47275656 -0.049407131   0.70771656   -5.1742187   -4.4665021 
   84900   0.45676277 -0.011014774   0.68377387   -5.1508625   -4.4670886 
   85000   0.47300283  -0.12461227   0.70808524   -5.1739648   -4.4658796 
   85100   0.45870077   -0.0710219   0.68667505   -5.1519068   -4.4652318 
   85200   0.44420127 -0.021425996   0.66496931   -5.1299077   -4.4649384 
   85300   0.45283776 -0.077443347   0.67789812   -5.1426407   -4.4647425 
   85400   0.45340635 -0.091366894    0.6787493   -5.1436162   -4.4648669 
   85500   0.46376211  -0.16001075   0.69425188   -5.1587932   -4.4645413 
   85600   0.46864622  -0.19511443   0.70156339   -5.1658418   -4.4642784 
   85700   0.45656436  -0.10067121   0.68347685   -5.1488354   -4.4653585 
   85800   0.46989937   -0.1242473   0.70343936    -5.169288   -4.4658486 
   85900   0.47284968 -0.068326759   0.70785597   -5.1738441   -4.4659881 
   86000   0.46264989  0.093645182   0.69258689   -5.1597477   -4.4671608 
   86100   0.46000943   0.24504935   0.68863412   -5.1566104   -4.4679763 
   86200   0.47727896   0.29286717    0.7144866   -5.1838209   -4.4693343 
   86300    0.4896423   0.30486983   0.73299452   -5.2029897   -4.4699952 
   86400   0.48976585   0.37234068   0.73317947   -5.2035691   -4.4703896 
   86500   0.47708681   0.50609859   0.71419895   -5.1851394   -4.4709405 
   86600   0.49004692   0.50178644   0.73360023   -5.2050589   -4.4714587 
   86700   0.47539976   0.60305206   0.71167345   -5.1835965   -4.4719231 
   86800   0.50023682   0.44506034   0.74885452   -5.2204849   -4.4716304 
   86900    0.4951235   0.41380257   0.74119988   -5.2134489   -4.4722491 
   87000   0.50056789   0.34420366   0.74935013   -5.2207193   -4.4713692 
   87100   0.49104083   0.32798513   0.73508812   -5.2059675   -4.4708794 
   87200   0.49445779   0.22436398   0.74020331   -5.2110833     -4.47088 
   87300   0.48521525   0.19849763   0.72636722   -5.1955175   -4.4691503 
   87400    0.4850672   0.18698771    0.7261456   -5.1946634   -4.4685178 
   87500   0.47196609   0.23296437   0.70653324    -5.174071   -4.4675378 
   87600   0.47536523   0.18044712   0.71162175   -5.1790268   -4.4674051 
   87700   0.47967346    0.1292783   0.71807117   -5.1845936   -4.4665224 
   87800   0.47241435   0.12756656   0.70720428   -5.1726844   -4.4654801 
   87900   0.46269366   0.13648761   0.69265241   -5.1583576   -4.4657052 
   88000   0.45587448  0.099014937    0.6824441    -5.147206   -4.4647619 
   88100   0.45385147  0.034775973   0.67941565   -5.1438485   -4.4644328 
   88200   0.46596281 -0.075823472   0.69754633   -5.1628245   -4.4652782 
   88300   0.45609476  -0.07026826   0.68277386   -5.1464492   -4.4636754 
   88400   0.47340606  -0.16994571   0.70868887   -5.1723943   -4.4637055 
   88500   0.44174606  0.013865972   0.66129386   -5.1253245   -4.4640306 
   88600   0.44968724 -0.045931337    0.6731818   -5.1366605   -4.4634787 
   88700   0.45584636  -0.12634553   0.68240201   -5.1466304   -4.4642283 
   88800   0.44894225  -0.10078865   0.67206655   -5.1365142   -4.4644477 
   88900     0.460894   -0.1395944   0.68995832   -5.1546969   -4.4647386 
   89000   0.46435552  -0.09841353   0.69514021   -5.1604306   -4.4652904 
   89100   0.46149638 -0.030346301   0.69086009   -5.1566052   -4.4657451 
   89200   0.47764552 -0.046229871   0.71503535   -5.1805462   -4.4655109 
   89300   0.46482251   0.11441681    0.6958393   -5.1618716   -4.4660323 
   89400    0.4696438   0.20357784   0.70305677   -5.1691542   -4.4660974 
   89500   0.46040407   0.36445281   0.68922489   -5.1564266   -4.4672017 
   89600   0.47608692   0.38017843   0.71270212   -5.1808517   -4.4681496 
   89700   0.47163313   0.45402097   0.70603479   -5.1745979   -4.4685631 
   89800   0.48073114    0.4104754   0.71965452   -5.1888709   -4.4692164 
   89900   0.46317487   0.44697116   0.69337278   -5.1635344   -4.4701617 
   90000   0.48210833   0.28001859   0.72171618   -5.1917162        -4.47 
   90100   0.49493606   0.16066626   0.74091929   -5.2100409   -4.4691216 
   90200   0.50188123   0.11265335    0.7513162    -5.220283   -4.4689668 
   90300   0.46928111   0.28727033   0.70251382   -5.1712526   -4.4687388 
   90400   0.48094499   0.25044977   0.71997464    -5.187995   -4.4680203 
   90500   0.46876554   0.31900558   0.70174202   -5.1685527   -4.4668107 
   90600     0.473879   0.30840111   0.70939686   -5.1759764   -4.4665795 
   90700    0.4794959   0.29099591   0.71780536   -5.1840799   -4.4662745 
   90800   0.47237321   0.33145259    0.7071427   -5.1739369   -4.4667942 
   90900   0.47757867    0.2607244   0.71493527   -5.1819935   -4.4670582 
   91000   0.48003697   0.18963915   0.71861534   -5.1857701   -4.4671547 
   91100   0.47910848   0.16455035    0.7172254   -5.1843733   -4.4671479 
   91200   0.48504149   0.10606653   0.72610712   -5.1919854   -4.4658783 
   91300    0.4757583   0.13042022   0.71221018   -5.1768812    -4.464671 
   91400   0.47067961   0.15018339   0.70460737   -5.1685218   -4.4639144 
   91500   0.47497727   0.10997304   0.71104098   -5.1747919   -4.4637509 
   91600   0.47891375  0.079470433   0.71693389   -5.1807225   -4.4637886 
   91700   0.46602616    0.1462625   0.69764116   -5.1607122   -4.4630711 
   91800   0.44469695   0.24761612   0.66571134   -5.1294676   -4.4637563 
   91900   0.45036261   0.15751172   0.67419282    -5.138316   -4.4641231 
   92000   0.45380303  0.073025099   0.67934313   -5.1442175   -4.4648744 
   92100   0.44034886  0.095186782   0.65920224   -5.1236533   -4.4644511 
   92200   0.43888373  0.065529459   0.65700894   -5.1205528   -4.4635439 
   92300   0.44676929 -0.029161431   0.66881363   -5.1313761   -4.4625625 
   92400   0.45119408  -0.11494433   0.67543753    -5.137609   -4.4621715 
   92500   0.45119079  -0.12830825   0.67543261   -5.1372777   -4.4618451 
   92600   0.45677178  -0.14213712   0.68378735   -5.1443244    -4.460537 
   92700   0.43971634 -0.056552569   0.65825536   -5.1190183   -4.4607629 
   92800   0.45340753  -0.12310515   0.67875107   -5.1395126   -4.4607616 
   92900   0.47840973   -0.1991415   0.71617937   -5.1772329   -4.4610536 
   93000   0.46165404 -0.0062055448    0.6910961   -5.1533877   -4.4622916 
   93100     0.460499   0.09216118     0.689367   -5.1530248   -4.4636578 
   93200   0.46978163   0.13821764    0.7032631   -5.1679647   -4.4647016 
   93300   0.45545026   0.30957665   0.68180904   -5.1456596   -4.4638506 
   93400   0.44900338   0.36720903   0.67215806   -5.1368233   -4.4646652 
   93500   0.46487043   0.24723525   0.69591104   -5.1604034   -4.4644924 
   93600   0.46640992   0.22061928   0.69821565   -5.1629164   -4.4647008 
   93700   0.47122678   0.21080466   0.70542649   -5.1710405    -4.465614 
   93800   0.47964772   0.17052108   0.71803263   -5.1850821   -4.4670495 
   93900   0.48807507   0.13316919   0.73064838   -5.1982534    -4.467605 
   94000   0.46647669   0.27476354   0.69831561   -5.1670879   -4.4687723 
   94100   0.47896884   0.23498581   0.71701636   -5.1858226   -4.4688062 
   94200    0.4765315   0.26806672   0.71336766   -5.1831835   -4.4698159 
   94300   0.47705892   0.28616092    0.7141572   -5.1835776   -4.4694204 
   94400   0.47137653   0.32026364   0.70565066   -5.1752086    -4.469558 
   94500   0.46927921   0.31806955   0.70251098   -5.1717414   -4.4692305 
   94600   0.47079172   0.27537236   0.70477521   -5.1736432    -4.468868 
   94700   0.49153419  0.097170154   0.73582668    -5.203455   -4.4676284 
   94800   0.48757483  0.058838943   0.72989953   -5.1961534   -4.4662539 
   94900   0.46815008   0.12132934   0.70082066   -5.1669816   -4.4661609 
   95000   0.46278556   0.12686914   0.69278998   -5.1592109   -4.4664209 
   95100   0.44201108   0.20238887   0.66169059   -5.1275554   -4.4658648 
   95200   0.46717046  0.033059505   0.69935418    -5.165024   -4.4656698 
   95300   0.45312026  0.064666557   0.67832102   -5.1443839   -4.4660629 
   95400   0.47499351 -0.065848566   0.71106528   -5.1778119   -4.4667466 
   95500   0.47640881   -0.0435029   0.71318399   -5.1787772   -4.4655932 
   95600    0.4610649  0.080770518   0.69021416   -5.1553793   -4.4651651 
   95700   0.47354188  0.054382364   0.70889219   -5.1743475   -4.4654553 
   95800   0.46307905   0.13762255   0.69322933   -5.1597898   -4.4665605 
   95900   0.48003032  0.088706614   0.71860538   -5.1856222   -4.4670168 
   96000   0.46525321   0.19262534   0.69648406   -5.1641853   -4.4677012 
   96100   0.47521905   0.18377397   0.71140292   -5.1801389    -4.468736 
   96200   0.46330255   0.27557004   0.69356392    -5.162785   -4.4692211 
   96300   0.46893576   0.24623589   0.70199683   -5.1713628   -4.4693659 
   96400   0.47855118   0.16385339   0.71639111   -5.1867013   -4.4703102 
   96500   0.46734302   0.24198396    0.6996125   -5.1702877   -4.4706752 
   96600   0.46116282   0.34439368   0.69036074   -5.1614266   -4.4710659 
   96700    0.4746495     0.347592    0.7105503   -5.1808035   -4.4702532 
   96800   0.47658861    0.4062072   0.71345315   -5.1840676   -4.4706145 
   96900   0.48514623   0.40639967   0.72626391   -5.1967793   -4.4705154 
   97000   0.47518692   0.47487715   0.71135482   -5.1808643   -4.4695095 
   97100   0.48731563   0.39144347    0.7295115   -5.1984716   -4.4689601 
   97200   0.50088816    0.2670409   0.74982958   -5.2199025   -4.4700729 
   97300   0.46413502     0.399257   0.69481012   -5.1648081    -4.469998 
   97400   0.47169335   0.27774982   0.70612495   -5.1760587   -4.4699338 
   97500   0.45488709   0.26951634   0.68096598   -5.1496579    -4.468692 
   97600   0.47477723  0.062559357   0.71074152   -5.1787827   -4.4680412 
   97700   0.46484171  0.070930749   0.69586804   -5.1635176   -4.4676496 
   97800   0.44028283    0.1761753   0.65910339   -5.1263913   -4.4672879 
   97900   0.47334169 -0.018011861   0.70859251   -5.1752284   -4.4666359 
   98000   0.45996798  0.092908014   0.68857206   -5.1544897   -4.4659176 
   98100   0.45714458    0.1471142   0.68434544   -5.1507853   -4.4664399 
   98200    0.4682354  0.069206685    0.7009484   -5.1678116   -4.4668632 
   98300   0.45689262   0.11258422   0.68396825   -5.1509648   -4.4669966 
   98400   0.45413469   0.12223946   0.67983963    -5.146804   -4.4669643 
   98500   0.46348892  0.072505572   0.69384291   -5.1609395   -4.4670966 
   98600    0.4704038  0.076361907   0.70419449   -5.1724977   -4.4683032 
   98700   0.47163363   0.16555727   0.70603555   -5.1742075   -4.4681719 
   98800    0.4582077   0.33468105   0.68593693   -5.1534229    -4.467486 
   98900     0.463226   0.35009334   0.69344932   -5.1610984   -4.4676491 
   99000   0.46155239    0.3373634   0.69094392   -5.1588183   -4.4678744 
   99100   0.48378223   0.19941647     0.724222   -5.1924245   -4.4682025 
   99200   0.47120337   0.25811236   0.70539145   -5.1733981   -4.4680066 
   99300    0.4583095   0.30819774   0.68608932   -5.1532143    -4.467125 
   99400   0.47297963   0.20666031   0.70805051   -5.1744335    -4.466383 
   99500   0.48770431   0.14121854   0.73009335   -5.1966773    -4.466584 
   99600   0.46229564   0.28778359   0.69205658   -5.1588671   -4.4668105 
   99700   0.46960106   0.21915279   0.70299279   -5.1688569   -4.4658642 
   99800   0.46678327   0.19124363   0.69877456   -5.1644374   -4.4656628 
   99900   0.47161413   0.15781702   0.70600635   -5.1720662   -4.4660599 
  100000   0.46797316   0.15905481   0.70055582   -5.1662586   -4.4657028 
  100100   0.46744283   0.10653736   0.69976192   -5.1653002   -4.4655382 
  100200   0.50120834 -0.071674156   0.75030889    -5.215665   -4.4653561 
  100300   0.45324434    0.2381323   0.67850678   -5.1452355   -4.4667287 
  100400   0.44545985   0.32042899   0.66685339   -5.1329956   -4.4661422 
  100500   0.44951709   0.27652122   0.67292709   -5.1389069   -4.4659798 
  100600   0.45372857   0.24859887   0.67923167   -5.1453883   -4.4661567 
  100700   0.47513764   0.13336764   0.71128104   -5.1775359   -4.4662548 
  100800   0.45447229   0.20696681   0.68034502   -5.1474477   -4.4671026 
  100900   0.46976449  0.079310033   0.70323744   -5.1705238   -4.4672863 
  101000   0.46096356  0.098638611   0.69006245   -5.1572188   -4.4671564 
  101100   0.45527405   0.15350455   0.68154525   -5.1480842   -4.4665389 
  101200   0.45230199   0.21327502   0.67709608   -5.1435082   -4.4664121 
  101300    0.4677826    0.1858669   0.70027055   -5.1667083   -4.4664378 
[...]
  475900   0.47238315   0.15588777   0.70715757   -5.1769151   -4.4697575 
  476000   0.47611686   0.20737141   0.71274694   -5.1822516   -4.4695046 
  476100   0.46570816   0.35762751   0.69716511   -5.1675428   -4.4703777 
  476200   0.47424751   0.35082491   0.70994853   -5.1812727   -4.4713241 
  476300   0.48883647   0.24870592    0.7317882   -5.2043486   -4.4725604 
  476400   0.49510575   0.21094336   0.74117331   -5.2139706   -4.4727973 
  476500   0.48930759   0.30130642   0.73249346   -5.2050677   -4.4725742 
  476600   0.48687599   0.39702936   0.72885336   -5.2008692   -4.4720159 
  476700   0.49832218   0.41728598    0.7459883   -5.2186556   -4.4726673 
  476800   0.48839021   0.53274133   0.73112015   -5.2049636   -4.4738435 
  476900   0.49194401   0.54397245   0.73644019   -5.2106419   -4.4742017 
  477000   0.48462245   0.57385321   0.72547981   -5.1994477   -4.4739679 
  477100   0.48883564   0.51212193   0.73178695     -5.20559   -4.4738031 
  477200   0.50927467   0.38220792   0.76238419   -5.2358288   -4.4734446 
  477300   0.48301232   0.48334444   0.72306945   -5.1960286   -4.4729591 
  477400   0.48422092   0.43063412   0.72487872   -5.1970226   -4.4721439 
  477500    0.4876792   0.36811947   0.73005577   -5.2018128    -4.471757 
  477600   0.48839799   0.30106203   0.73113179   -5.2032803   -4.4721486 
  477700   0.48694641   0.23747646   0.72895877   -5.2017385   -4.4727797 
  477800   0.50290274   0.11907994    0.7528454   -5.2251662   -4.4723208 
  477900   0.48072859   0.20732623    0.7196507   -5.1904475   -4.4707968 
  478000   0.48884828   0.15762477   0.73180588   -5.2020505   -4.4702446 
  478100   0.49998529  0.079475511   0.74847797      -5.2183   -4.4698221 
  478200   0.48059883   0.20239669   0.71945645   -5.1893806   -4.4699242 
  478300   0.47205999   0.27178007    0.7066738   -5.1783301   -4.4716563 
  478400   0.48731953   0.18405083   0.72951734   -5.2011407   -4.4716234 
  478500   0.49018027   0.17306072   0.73379986   -5.2047701   -4.4709702 
  478600   0.47207626   0.27103753   0.70669817   -5.1775077   -4.4708095 
  478700    0.4754805   0.24622892   0.71179431   -5.1832242   -4.4714299 
  478800   0.48088218   0.23791076   0.71988062   -5.1915777   -4.4716971 
  478900     0.470043   0.30781102   0.70365437   -5.1753824    -4.471728 
  479000   0.48156084   0.26677527   0.72089658   -5.1918675   -4.4709709 
  479100    0.4684357   0.31411897   0.70124825   -5.1720909   -4.4708427 
  479200   0.47000333   0.27018472   0.70359498   -5.1747328   -4.4711379 
  479300    0.4978862   0.12495049   0.74533565   -5.2156625   -4.4703268 
  479400   0.49268024   0.21412568   0.73754232   -5.2080282   -4.4704859 
  479500   0.50820156   0.18712307   0.76077773   -5.2320483   -4.4712706 
  479600   0.49551295   0.25696039   0.74178289   -5.2123134   -4.4705305 
  479700   0.50960675   0.18662865   0.76288131    -5.232006   -4.4691247 
  479800   0.47117537   0.37386528   0.70534952   -5.1747624   -4.4694129 
  479900   0.48918848   0.26813356   0.73231515   -5.2016306   -4.4693154 
  480000   0.48890378   0.24123236   0.73188896   -5.2018583   -4.4699694 
  480100    0.4801039    0.2500378   0.71871553    -5.188916   -4.4702005 
  480200   0.51042728  0.075601637   0.76410964   -5.2329052   -4.4687956 
  480300   0.48691407   0.22241851   0.72891036   -5.1976041   -4.4686937 
  480400   0.50709465   0.12449665   0.75912069   -5.2277497    -4.468629 
  480500    0.4980753     0.136629   0.74561872   -5.2139499   -4.4683312 
  480600   0.47085149    0.2175408   0.70486468   -5.1729989   -4.4681342 
  480700   0.47490248   0.12807958   0.71092902   -5.1786359   -4.4677068 
  480800   0.48828129  0.007653138    0.7309571   -5.1990561    -4.468099 
  480900   0.49002452 -0.028603442    0.7335667   -5.2017966   -4.4682299 
  481000   0.48475366  0.047135458   0.72567623   -5.1945209   -4.4688447 
  481100   0.47895414    0.1632894   0.71699435    -5.186168   -4.4691736 
  481200   0.48715025   0.17570122   0.72926392   -5.1988612   -4.4695973 
  481300    0.5051309   0.11387398   0.75618096   -5.2256498   -4.4694689 
  481400   0.50080864   0.16861502   0.74971053   -5.2193303   -4.4696198 
  481500   0.50065436   0.20158862   0.74947957   -5.2199804   -4.4705008 
  481600   0.48478714   0.29180949   0.72572634   -5.1961921   -4.4704658 
  481700   0.50001582   0.21897244   0.74852368   -5.2181015   -4.4695779 
  481800   0.48799271   0.28009696   0.73052509   -5.1998762   -4.4693511 
  481900   0.48910123   0.28691285   0.73218453   -5.2014556    -4.469271 
  482000   0.47782278   0.36991287    0.7153007   -5.1851576   -4.4698569 
  482100   0.49122214   0.31657946   0.73535954   -5.2059354   -4.4705759 
  482200   0.49396924   0.30067683   0.73947195    -5.210826    -4.471354 
  482300   0.48995258   0.30763978   0.73345901   -5.2059581   -4.4724991 
  482400   0.49618818    0.2646831    0.7427937   -5.2154573   -4.4726636 
  482500   0.48613018   0.31781872   0.72773688   -5.1990285   -4.4712916 
  482600   0.51303221   0.19749603   0.76800922   -5.2402824   -4.4722732 
  482700   0.49339051   0.31092228   0.73860559   -5.2107793   -4.4721738 
  482800   0.51061859   0.20391038   0.76439603   -5.2366686   -4.4722726 
  482900   0.49022231   0.29385287   0.73386279   -5.2054185   -4.4715557 
  483000   0.48907847   0.26310005   0.73215047   -5.2030244   -4.4708739 
  483100   0.50832115   0.11834379   0.76095676   -5.2324486   -4.4714918 
  483200   0.50338588   0.13967955   0.75356867   -5.2255482   -4.4719796 
  483300   0.50590184    0.1332117   0.75733505   -5.2274912   -4.4701561 
  483400   0.49606002   0.17570388   0.74260185   -5.2127241   -4.4701222 
  483500   0.49232971   0.15807329   0.73701757   -5.2072033   -4.4701858 
  483600    0.5005847   0.10310813    0.7493753    -5.219139   -4.4697637 
  483700   0.47501683   0.25447703   0.71110019   -5.1809628   -4.4698626 
  483800   0.47942095   0.24105694   0.71769316   -5.1885376   -4.4708444 
  483900   0.48197452   0.21585562   0.72151586   -5.1924581   -4.4709422 
  484000   0.48624751   0.19050161   0.72791252   -5.1986183   -4.4707057 
  484100   0.49116279   0.16368297   0.73527069    -5.205944   -4.4706733 
  484200   0.49294752   0.12762743   0.73794243   -5.2074093   -4.4694668 
  484300   0.49881305  0.039588936   0.74672313   -5.2170364   -4.4703132 
  484400   0.49088903  0.058851965   0.73486088   -5.2058924   -4.4710315 
  484500   0.47118081   0.17001308   0.70535767   -5.1772644   -4.4719067 
  484600   0.48523999    0.1238283   0.72640427   -5.1986669   -4.4722627 
  484700   0.50363572  0.086822707   0.75394268   -5.2261116   -4.4721689 
  484800   0.49219356   0.21050292   0.73681376   -5.2077118   -4.4708981 
  484900   0.49170074    0.2424105     0.736076   -5.2064532   -4.4703772 
  485000   0.50365103   0.18419199   0.75396559   -5.2251585   -4.4711929 
  485100   0.50544461   0.19249849   0.75665058   -5.2289686    -4.472318 
  485200    0.5156503   0.16817566   0.77192849   -5.2439877   -4.4720592 
  485300   0.49890987   0.29305417   0.74686808   -5.2190254   -4.4721573 
  485400   0.50633052   0.29830878   0.75797679   -5.2300474   -4.4720706 
  485500   0.48967599   0.39412639   0.73304496   -5.2062255   -4.4731805 
  485600   0.47876808   0.41709861   0.71671582   -5.1902807   -4.4735649 
  485700   0.48287358   0.34512236   0.72286175   -5.1968562   -4.4739945 
  485800   0.49531944   0.28082665   0.74149321   -5.2157483   -4.4742551 
  485900    0.4927621   0.32595398   0.73766487   -5.2121165   -4.4744517 
  486000   0.50056935   0.32221433   0.74935232   -5.2234919   -4.4741396 
  486100   0.48780089    0.4565007   0.73023794     -5.20359   -4.4733521 
  486200   0.52005023    0.3455745   0.77851519   -5.2525215   -4.4740063 
  486300   0.48237366   0.55522526   0.72211337   -5.1952682   -4.4731548 
  486400   0.50934332   0.37427929   0.76248695   -5.2345307   -4.4720438 
  486500   0.53318706   0.16685623   0.79818104   -5.2702951   -4.4721141 
  486600     0.505104   0.26997717   0.75614069    -5.227616   -4.4714753 
  486700   0.48789207   0.32734105   0.73037443    -5.201909   -4.4715346 
  486800   0.50004455   0.21567962   0.74856669   -5.2200379   -4.4714712 
  486900   0.48562333   0.23819781   0.72697812   -5.1969377   -4.4699596 
  487000   0.48732455   0.15976342   0.72952485   -5.1993877   -4.4698629 
  487100   0.49780021  0.022440393   0.74520691   -5.2148088   -4.4696019 
  487200    0.4909625 0.0088221422   0.73497086   -5.2047028   -4.4697319 
  487300   0.47880133  0.054147873   0.71676559   -5.1860054   -4.4692398 
  487400   0.47646989  0.046128744   0.71327543   -5.1822332   -4.4689578 
  487500   0.46459604   0.11069897   0.69550028   -5.1645909   -4.4690906 
  487600   0.46834015   0.11302026    0.7011052   -5.1692214   -4.4681162 
  487700   0.49334197  0.026941703   0.73853293   -5.2072594   -4.4687264 
  487800   0.48641641  0.095392184   0.72816537   -5.1972151   -4.4690497 
  487900   0.49468016  0.058867554   0.74053619   -5.2109506   -4.4704144 
  488000   0.48885068   0.12818653   0.73180947   -5.2019593   -4.4701498 
  488100   0.47657654   0.26457543   0.71343508   -5.1849057   -4.4714706 
  488200   0.48523586   0.27281421   0.72639808   -5.1975746   -4.4711765 
  488300   0.50556771   0.20139248   0.75683487   -5.2283955   -4.4715607 
  488400   0.50995639   0.22171745   0.76340471    -5.234744   -4.4713393 
  488500   0.49998098   0.31425203   0.74847152   -5.2195856    -4.471114 
  488600    0.4885326   0.37105631    0.7313333   -5.2030351   -4.4717018 
  488700   0.49820124   0.32199862   0.74580726   -5.2183866   -4.4725793 
  488800   0.51482013   0.28537993   0.77068573   -5.2438593   -4.4731736 
  488900    0.5019491   0.41839534    0.7514178   -5.2243217   -4.4729039 
  489000   0.52829402   0.31658375   0.79085615   -5.2634997   -4.4726436 
  489100   0.50017957   0.45987759   0.74876881   -5.2212793   -4.4725105 
  489200   0.49204501   0.49047345   0.73659138   -5.2096914      -4.4731 
  489300   0.50680309    0.3662587   0.75868422   -5.2314922    -4.472808 
  489400   0.50331877   0.34321381    0.7534682    -5.225821   -4.4723528 
  489500   0.48911986   0.39585087   0.73221242   -5.2043875    -4.472175 
  489600   0.51574287   0.24218564   0.77206708   -5.2437205   -4.4716534 
  489700   0.49849894   0.29914264   0.74625291   -5.2173833   -4.4711304 
  489800   0.47749374   0.35120381   0.71480813   -5.1850851   -4.4702769 
  489900   0.49159598   0.17210827   0.73591918   -5.2075666   -4.4716474 
  490000   0.48714854   0.11228342   0.72926136   -5.1998257   -4.4705643 
  490100   0.49153548  0.070615784   0.73582861   -5.2059424   -4.4701137 
  490200   0.47573082   0.15367047   0.71216903   -5.1823477   -4.4701787 
  490300    0.4797486   0.15502252   0.71818365   -5.1883654   -4.4701818 
  490400   0.46428215    0.2473487   0.69503037   -5.1657655   -4.4707351 
  490500    0.4875145   0.12364667   0.72980921    -5.200297   -4.4704877 
  490600   0.48037083   0.15941718   0.71911513   -5.1897043   -4.4705891 
  490700   0.47784492   0.17226977   0.71533384   -5.1859565   -4.4706226 
  490800   0.47260735   0.17874973    0.7074932   -5.1767443   -4.4692511 
  490900   0.47528657   0.15611503     0.711504   -5.1812398   -4.4697358 
  491000   0.48019701   0.15877184   0.71885493   -5.1884476   -4.4695927 
  491100   0.49507845   0.13050969   0.74113243   -5.2108561   -4.4697237 
  491200   0.48734305   0.20200487   0.72955255    -5.198558   -4.4690054 
  491300   0.46463672   0.32061642   0.69556116   -5.1636873   -4.4681262 
  491400   0.48670117   0.16805331   0.72859166   -5.1970388   -4.4684472 
  491500   0.50000846  0.086875339   0.74851267    -5.217808   -4.4692954 
  491600   0.47436142    0.2526012   0.71011904   -5.1803291   -4.4702101 
  491700   0.48409435   0.26031432   0.72468924   -5.1948622    -4.470173 
  491800   0.48302754   0.27743299   0.72309222   -5.1922211   -4.4691289 
  491900   0.48852184   0.21002658   0.73131719   -5.2007394   -4.4694222 
  492000   0.49260133   0.15855688   0.73742419   -5.2069673   -4.4695431 
  492100   0.47345829   0.25501424   0.70876707   -5.1775269   -4.4687598 
  492200   0.47166119    0.2461591   0.70607681   -5.1756209   -4.4695441 
  492300   0.49545951  0.088395025   0.74170288   -5.2104347   -4.4687318 
  492400   0.49281138    0.1240903   0.73773864   -5.2062421   -4.4685035 
  492500   0.47293575   0.25571589   0.70798481   -5.1767235   -4.4687387 
  492600    0.4930526    0.1813066   0.73809974   -5.2073915   -4.4692917 
  492700   0.49602893    0.2197414    0.7425553   -5.2116508   -4.4690955 
  492800   0.49546944   0.25561908   0.74171775   -5.2105444   -4.4688267 
  492900   0.50053154    0.2284936   0.74929571   -5.2183517    -4.469056 
  493000   0.49750824   0.26280584   0.74476984   -5.2152024   -4.4704326 
  493100   0.47278788    0.4198803   0.70776346   -5.1788447   -4.4710813 
  493200   0.48967052   0.35296288   0.73303676   -5.2037974   -4.4707607 
  493300    0.4949815   0.35602028    0.7409873   -5.2114936   -4.4705063 
  493400    0.4778017   0.48254086   0.71526915   -5.1864304   -4.4711613 
  493500    0.5103525   0.34428557   0.76399769   -5.2351615   -4.4711638 
  493600   0.50551485   0.37215457   0.75675572   -5.2278863   -4.4711306 
  493700   0.49744438   0.40014109   0.74467424   -5.2155435   -4.4708692 
  493800   0.48950839   0.42750808   0.73279406   -5.2051629   -4.4723688 
  493900   0.48235091   0.44379633   0.72207931   -5.1943505   -4.4722712 
  494000   0.49031179    0.3449077   0.73399675   -5.2054551   -4.4714584 
  494100   0.49052998   0.26225494   0.73432338   -5.2053551   -4.4710317 
  494200   0.48796089   0.18717978   0.73047746   -5.2012072   -4.4707297 
  494300   0.49119659   0.11232653   0.73532129   -5.2044479   -4.4691266 
  494400   0.49370492  0.052173927   0.73907627   -5.2082979   -4.4692216 
  494500    0.4798841   0.10599954   0.71838649   -5.1876338   -4.4692473 
  494600   0.48724355   0.05921528   0.72940359   -5.1988819   -4.4694783 
  494700   0.48746179  0.051655748   0.72973029   -5.1988148   -4.4690845 
  494800   0.48369665  0.063484167   0.72409388   -5.1928187   -4.4687248 
  494900   0.48379892  0.056148269   0.72424698   -5.1937856   -4.4695386 
  495000   0.47605451   0.12226041    0.7126536   -5.1811836     -4.46853 
  495100   0.46970847   0.18358957   0.70315358   -5.1716823   -4.4685288 
  495200   0.48504023   0.12830358   0.72610523   -5.1952245   -4.4691193 
  495300   0.48006703    0.1984477   0.71866034   -5.1886603        -4.47 
  495400   0.48006175   0.23800949   0.71865245   -5.1890117   -4.4703593 
  495500   0.47658783   0.26959558   0.71345199   -5.1837672   -4.4703153 
  495600   0.51164945    0.1348341   0.76593922   -5.2360893   -4.4701501 
  495700   0.48391945   0.32735043   0.72442742   -5.1945929   -4.4701655 
  495800   0.52004109   0.20621669    0.7785015   -5.2482125    -4.469711 
  495900   0.51409881   0.26736763   0.76960592   -5.2398649    -4.470259 
  496000   0.50152176   0.33096499   0.75077808   -5.2213976   -4.4706195 
  496100   0.47857254   0.41878184   0.71642309   -5.1875345   -4.4711114 
  496200   0.48837038    0.3615251   0.73109045   -5.2022988   -4.4712083 
  496300   0.49003936   0.31793524   0.73358892   -5.2046647   -4.4710758 
  496400   0.48832782    0.3118729   0.73102674   -5.2011531   -4.4701264 
  496500   0.48646695   0.31173612   0.72824103   -5.1982094   -4.4699683 
  496600   0.50540048   0.17883309   0.75658452   -5.2259355    -4.469351 
  496700   0.52009429  0.065331045   0.77858115   -5.2484939   -4.4699128 
  496800   0.51492348  0.092883119   0.77084044   -5.2390703   -4.4682299 
  496900   0.49076289   0.23333235   0.73467204   -5.2034232   -4.4687511 
  497000   0.48478451   0.24787748   0.72572241   -5.1946407   -4.4689182 
  497100    0.4808622   0.22919554   0.71985071   -5.1872306   -4.4673798 
  497200   0.47378106   0.22028078   0.70925025   -5.1765195   -4.4672693 
  497300    0.4740574   0.18594848   0.70966393   -5.1774243   -4.4677604 
  497400   0.48498461   0.10682117   0.72602197   -5.1931853   -4.4671633 
  497500    0.4758958    0.1532232   0.71241601   -5.1797363   -4.4673203 
  497600   0.46286124   0.22392855   0.69290327   -5.1595927   -4.4666894 
  497700   0.47065331   0.16840576     0.704568   -5.1715842   -4.4670162 
  497800   0.48004053   0.11377871   0.71862068   -5.1854665   -4.4668459 
  497900   0.48781123   0.10403121   0.73025342   -5.1980131   -4.4677596 
  498000   0.46878471   0.24098433   0.70177071   -5.1695998   -4.4678291 
  498100   0.49352781   0.12750192   0.73881112   -5.2067702    -4.467959 
  498200   0.50475908  0.098055311   0.75562434   -5.2240725   -4.4684481 
  498300   0.49184243   0.22447216   0.73628811   -5.2054898   -4.4692016 
  498400   0.47716749    0.3265991   0.71431973   -5.1831631   -4.4688433 
  498500   0.49692541    0.2467924   0.74389734   -5.2131661   -4.4692688 
  498600   0.50381642   0.27111537   0.75421318   -5.2254669   -4.4712537 
  498700    0.4946993   0.39645249   0.74056486   -5.2119179   -4.4713531 
  498800   0.48913277   0.45736732   0.73223175   -5.2024091   -4.4701773 
  498900   0.50621528   0.36795725   0.75780428   -5.2283047   -4.4705004 
  499000   0.49332875   0.43979725   0.73851314   -5.2091486   -4.4706355 
  499100   0.50521482   0.35499744   0.75630658   -5.2270104   -4.4707038 
  499200   0.49025189   0.37185126   0.73390707   -5.2045479   -4.4706408 
  499300   0.46868139   0.42603245   0.70161604   -5.1711202   -4.4695041 
  499400   0.46327487   0.41748868   0.69352249   -5.1631502   -4.4696277 
  499500    0.4611632   0.37219221   0.69036131    -5.159528   -4.4691667 
  499600   0.49674794   0.11987944   0.74363167   -5.2125564   -4.4689248 
  499700   0.49010122    0.1279504   0.73368153   -5.2025075   -4.4688259 
  499800   0.47878675   0.17434218   0.71674377   -5.1847537   -4.4680099 
  499900   0.49556962  0.099475031   0.74186772   -5.2087689   -4.4669012 
  500000   0.47267256   0.21442841   0.70759082   -5.1737395   -4.4661487 
  500100   0.48143696   0.18470619   0.72071113   -5.1867011     -4.46599 
  500200   0.46680951   0.26724279   0.69881383   -5.1650338     -4.46622 
  500300   0.48231695   0.17917616   0.72202848    -5.188564   -4.4665355 
  500400   0.47072407   0.23547877   0.70467393   -5.1712405   -4.4665666 
  500500   0.47837611   0.16347283   0.71612904   -5.1826307   -4.4665017 
  500600   0.47695879   0.13460795   0.71400731   -5.1803451   -4.4663378 
  500700   0.46193428   0.19931693   0.69151562   -5.1585097   -4.4669941 
  500800   0.46245778   0.18352714   0.69229929   -5.1596842   -4.4673849 
  500900   0.47185634  0.091898991   0.70636895   -5.1743158   -4.4679468 
  501000   0.47997251  0.060818205   0.71851885   -5.1854175   -4.4668986 
Loop time of 33.1154 on 4 procs for 500000 steps with 500 atoms

Performance: 652264.274 tau/day, 15098.710 timesteps/s
99.9% CPU use with 4 MPI tasks x no OpenMP threads

MPI task timing breakdown:
Section |  min time  |  avg time  |  max time  |%varavg| %total
---------------------------------------------------------------
Pair    | 14.69      | 20.814     | 27.265     | 101.0 | 62.85
Neigh   | 0.38388    | 0.51582    | 0.6542     |  15.3 |  1.56
Comm    | 2.9655     | 9.8822     | 16.436     | 156.9 | 29.84
Output  | 0.039494   | 0.05222    | 0.083482   |   7.9 |  0.16
Modify  | 0.88672    | 0.93868    | 1.0051     |   5.0 |  2.83
Other   |            | 0.9124     |            |       |  2.76

Nlocal:    125 ave 129 max 118 min
Histogram: 1 0 0 0 0 1 0 0 0 2
Nghost:    246.25 ave 250 max 242 min
Histogram: 1 0 0 1 0 0 0 1 0 1
Neighs:    3485.5 ave 4407 max 2668 min
Histogram: 1 1 0 0 0 0 1 0 0 1

Total # of neighbors = 13942
Ave neighs/atom = 27.884
Neighbor list builds = 4395
Dangerous builds = 0
Total wall time: 0:00:33
