LAMMPS (30 Jul 2016)
variable seed equal 1928427217 #1st random number by Rafi
variable avg_length equal 1000000

units lj # This simulation uses Lennard-Jones reduced units (see notes)
boundary f f f # this isn't necessary, but we have reflective walls, so this
               # will tell us if those fail for some reason

# create box that can be filled with Type-1 atoms
lattice fcc 0.75 # reduced density is 0.75
Lattice spacing in x,y,z = 1.74716 1.74716 1.74716
region simbox block 0 5 0 5 0 5
create_box 1 simbox
Created orthogonal box = (0 0 0) to (8.7358 8.7358 8.7358)
  2 by 2 by 2 MPI processor grid

# How we calculate forces
pair_style lj/cut 2.5 # r_c = 2.5 sigma
pair_coeff 1 1 1.0 1.0 # specify sigma = 1 and epsilon = 1
mass 1 1 # mass, in LJ reduced units

# Do we want the Lennard-Jones potential shifted? Default: yes
#pair_modify shift no

# Fill simulation with type 1 atoms, on-lattice
create_atoms 1 box
Created 500 atoms
# give them random velocities consistent with kT/epsilon = 0.5
velocity all create 0.5 ${seed} # last number is a random number seed
velocity all create 0.5 1928427217 

# What thermodynamic information do we desire to collect?
thermo_style custom step temp press ke pe etotal
thermo 100 # print the above every 100 time steps

# set the time step; default is 0.005 tau
timestep 0.0005

# Apply reflective walls (to mimic the Monte Carlo simulation)
fix reflect all wall/reflect xlo EDGE xhi EDGE ylo EDGE yhi EDGE zlo EDGE zhi EDGE

# Run molecular dynamics in the isokinetic ensemble (constant
# kinetic energy) by rescaling the velocities every time step
# for 1000 time steps, to achieve a temperature consistent with
# kT/epsilon = 0.5
fix 2 all temp/rescale 1 0.5 0.5 0.0 1.0
fix 1 all nve # velocity Verlet time integration
run 1000
Neighbor list info ...
  1 neighbor list requests
  update every 1 steps, delay 10 steps, check yes
  max neighbors/atom: 2000, page size: 100000
  master list distance cutoff = 2.8
  ghost atom cutoff = 2.8
  binsize = 1.4 -> bins = 7 7 7
Memory usage per processor = 2.48609 Mbytes
Step Temp Press KinEng PotEng TotEng 
       0          0.5   -4.2606863       0.7485   -4.6432288   -3.8947288 
     100          0.5   -3.8908646       0.7485   -4.7087188   -3.9602188 
     200          0.5   -2.4494343       0.7485   -4.6460706   -3.8975706 
     300          0.5  -0.72560672       0.7485   -4.5464536   -3.7979536 
     400          0.5  -0.36795618       0.7485   -4.6881639   -3.9396639 
     500          0.5  -0.29430476       0.7485    -4.811346    -4.062846 
     600          0.5  -0.20213686       0.7485   -4.8907638   -4.1422638 
     700          0.5  -0.28203166       0.7485   -5.0002004   -4.2517004 
     800          0.5  -0.19430045       0.7485   -5.0693633   -4.3208633 
     900          0.5  -0.14837549       0.7485   -5.1551258   -4.4066258 
    1000          0.5 -0.047427666       0.7485   -5.2260527   -4.4775527 
Loop time of 0.0970829 on 8 procs for 1000 steps with 500 atoms

Performance: 444980.604 tau/day, 10300.477 timesteps/s
57.6% CPU use with 8 MPI tasks x no OpenMP threads

MPI task timing breakdown:
Section |  min time  |  avg time  |  max time  |%varavg| %total
---------------------------------------------------------------
Pair    | 0.020231   | 0.034721   | 0.047406   |   5.0 | 35.76
Neigh   | 0.00036907 | 0.00062841 | 0.00092769 |   0.8 |  0.65
Comm    | 0.032766   | 0.047185   | 0.063869   |   4.9 | 48.60
Output  | 0.00014472 | 0.00016037 | 0.00022912 |   0.2 |  0.17
Modify  | 0.0048907  | 0.0077783  | 0.010397   |   1.9 |  8.01
Other   |            | 0.00661    |            |       |  6.81

Nlocal:    62.5 ave 83 max 44 min
Histogram: 1 0 2 1 0 1 1 1 0 1
Nghost:    244 ave 282 max 210 min
Histogram: 1 0 1 2 0 2 1 0 0 1
Neighs:    1698.62 ave 2932 max 797 min
Histogram: 1 2 0 2 0 0 1 1 0 1

Total # of neighbors = 13589
Ave neighs/atom = 27.178
Neighbor list builds = 8
Dangerous builds = 0
unfix 2

# Compute the radial distribution function
compute RDF all rdf 50 # 50 bins between 0 and the cutoff distance
# output the average of the RDF over the last 50000 steps every 50000 steps
fix RDF all ave/time 1 1 ${avg_length} c_RDF[2*3] file RDF_lj.txt mode vector
fix RDF all ave/time 1 1 1000000 c_RDF[2*3] file RDF_lj.txt mode vector

run ${avg_length} # run the simulation
run 1000000 
Neighbor list info ...
  2 neighbor list requests
  update every 1 steps, delay 10 steps, check yes
  max neighbors/atom: 2000, page size: 100000
  master list distance cutoff = 2.8
  ghost atom cutoff = 2.8
  binsize = 1.4 -> bins = 7 7 7
Memory usage per processor = 2.48609 Mbytes
Step Temp Press KinEng PotEng TotEng 
    1000          0.5 -0.047427666       0.7485   -5.2260527   -4.4775527 
    1100   0.52553925   0.22284808   0.78673226   -5.2711369   -4.4844046 
    1200   0.56548512   0.45724271   0.84653122   -5.3358978   -4.4893666 
    1300   0.56708719    0.8722268   0.84892953   -5.3452139   -4.4962843 
    1400   0.58135738    1.1643848   0.87029199   -5.3727126   -4.5024206 
    1500   0.59134465    1.4337164   0.88524295   -5.3936354   -4.5083924 
    1600   0.58118404    1.7925993    0.8700325   -5.3831565    -4.513124 
    1700   0.57771347     1.997911   0.86483706   -5.3829216   -4.5180846 
    1800   0.60054706    1.9351495   0.89901895   -5.4179212   -4.5189023 
    1900   0.58403834    1.9632551   0.87430539   -5.3936966   -4.5193913 
    2000   0.57613671    1.8424054   0.86247666   -5.3795504   -4.5170737 
    2100   0.55726549     1.686879   0.83422644   -5.3486559   -4.5144294 
    2200   0.56162054    1.3408239   0.84074596   -5.3500851   -4.5093391 
    2300   0.56621784   0.94244077   0.84762811   -5.3541738   -4.5065457 
    2400   0.53615571   0.72455939    0.8026251   -5.3039801    -4.501355 
    2500   0.52646373   0.35573688   0.78811621   -5.2840217   -4.4959054 
    2600   0.50313239   0.06495499   0.75318919   -5.2441331   -4.4909439 
    2700   0.48871899   -0.2128559   0.73161232   -5.2185367   -4.4869244 
    2800   0.45219076  -0.32265016   0.67692957   -5.1607525   -4.4838229 
    2900   0.44162056  -0.53928309   0.66110598   -5.1408808   -4.4797748 
    3000   0.44694982   -0.8025777   0.66908389   -5.1457278   -4.4766439 
    3100   0.44312783  -0.95223259   0.66336236    -5.137592   -4.4742296 
    3200   0.43068182  -0.98839862   0.64473068   -5.1178827    -4.473152 
    3300   0.41393727  -0.94978739   0.61966409     -5.09213    -4.472466 
    3400   0.40002163  -0.88035417   0.59883238   -5.0717233   -4.4728909 
    3500   0.39725733  -0.80004709   0.59469422   -5.0668351   -4.4721408 
    3600   0.40292684  -0.73295734   0.60318149   -5.0762354   -4.4730539 
    3700   0.43518103  -0.78774945   0.65146601   -5.1254988   -4.4740328 
    3800    0.4193952  -0.56598715   0.62783461   -5.1021283   -4.4742937 
    3900   0.42566249  -0.45605372   0.63721674   -5.1131748   -4.4759581 
    4000   0.44180172  -0.38316811   0.66137717   -5.1389679   -4.4775907 
    4100    0.4286242  -0.14574702   0.64165043   -5.1205453   -4.4788949 
    4200   0.44706307  -0.10461433   0.66925342   -5.1498789   -4.4806255 
    4300    0.4454346   0.01718838   0.66681559   -5.1492687   -4.4824531 
    4400   0.46995771 -0.031340819    0.7035267   -5.1881988   -4.4846721 
    4500   0.49485951  -0.11563762   0.74080469   -5.2273369   -4.4865322 
    4600   0.49445144  -0.01732128    0.7401938   -5.2285211   -4.4883273 
    4700   0.48517578   0.16598974   0.72630815   -5.2159732   -4.4896651 
    4800   0.50429209   0.19028547   0.75492525   -5.2470392   -4.4921139 
    4900   0.49470093   0.39305167    0.7405673   -5.2337576   -4.4931903 
    5000   0.48643832   0.59675073   0.72819816   -5.2222699   -4.4940717 
    5100   0.46652583   0.78570528   0.69838917   -5.1936357   -4.4952466 
    5200   0.50579094   0.59055987   0.75716904   -5.2530376   -4.4958686 
    5300   0.50806621    0.5781361   0.76057511   -5.2571615   -4.4965864 
    5400   0.49275303    0.6703362   0.73765129   -5.2339756   -4.4963243 
    5500   0.50863166   0.58711899   0.76142159   -5.2566375   -4.4952159 
    5600   0.49742568   0.61631165   0.74464624   -5.2389751   -4.4943288 
    5700   0.49472303   0.56705677   0.74060037   -5.2337542   -4.4931538 
    5800   0.48761924    0.5300918   0.72996601   -5.2218806   -4.4919146 
    5900   0.46548958   0.54874399   0.69683791   -5.1883281   -4.4914902 
    6000   0.48457319   0.29611963   0.72540606   -5.2162119   -4.4908058 
    6100    0.4779058   0.14100911   0.71542498   -5.2043121   -4.4888871 
    6200   0.47125969 -0.017957379   0.70547576   -5.1928284   -4.4873526 
    6300   0.47308727  -0.19527589   0.70821164   -5.1946184   -4.4864068 
    6400   0.46915766  -0.30084932   0.70232901   -5.1871041   -4.4847751 
    6500   0.45717225  -0.35466655   0.68438686   -5.1676289    -4.483242 
    6600   0.43204259  -0.30134384   0.64676775   -5.1285083   -4.4817406 
    6700   0.42633142  -0.30689471   0.63821814   -5.1193695   -4.4811514 
    6800   0.43683271  -0.37830131   0.65393857   -5.1338172   -4.4798786 
    6900   0.45100698  -0.43902126   0.67515744   -5.1548688   -4.4797113 
    7000   0.43649703  -0.33756321   0.65343605   -5.1332444   -4.4798083 
    7100   0.42168103  -0.22806116    0.6312565    -5.110996   -4.4797395 
    7200   0.42948375  -0.24171628   0.64293717   -5.1238524   -4.4809152 
    7300   0.43814608  -0.25056297   0.65590468   -5.1369504   -4.4810457 
    7400   0.44756278  -0.21271995   0.67000148   -5.1513413   -4.4813398 
    7500   0.45317217   -0.1590341   0.67839873   -5.1601591   -4.4817604 
    7600   0.46292177  -0.15325405    0.6929939    -5.175604   -4.4826101 
    7700   0.44361191 -0.0095445154   0.66408703   -5.1481321   -4.4840451 
    7800   0.46039661 -0.058081796   0.68921373   -5.1748912   -4.4856775 
    7900    0.4670759 -0.044478182   0.69921262   -5.1856405   -4.4864279 
    8000   0.45506015  0.098734364   0.68122504   -5.1684037   -4.4871786 
    8100   0.45928915   0.14894722   0.68755585   -5.1744409    -4.486885 
    8200   0.47356436   0.12133251   0.70892584     -5.19643   -4.4875041 
    8300   0.50511387  0.040172112   0.75615547   -5.2440892   -4.4879338 
    8400   0.47461701   0.29397831   0.71050166    -5.198787   -4.4882853 
    8500   0.47042226    0.3805203   0.70422213   -5.1945312    -4.490309 
    8600   0.47758918   0.35849694     0.714951   -5.2048693   -4.4899183 
    8700    0.4822411   0.34026495   0.72191493   -5.2125197   -4.4906048 
    8800   0.48716699   0.34556094   0.72928898   -5.2197566   -4.4904676 
    8900   0.48656572   0.36537436   0.72838889   -5.2196088   -4.4912199 
    9000   0.46979851   0.42006822   0.70328837   -5.1948293   -4.4915409 
    9100   0.47593828    0.3533095   0.71247961   -5.2044476    -4.491968 
    9200    0.4746591   0.30259343   0.71056468   -5.2025648   -4.4920001 
    9300   0.47833153    0.2031314   0.71606231     -5.20643   -4.4903677 
    9400   0.47474148   0.13497652     0.710688   -5.2009587   -4.4902707 
    9500   0.47568833  0.058411847   0.71210543   -5.2016256   -4.4895202 
    9600   0.45820607   0.11151975   0.68593448   -5.1746692   -4.4887347 
    9700   0.45111462   0.12148205   0.67531858   -5.1635373   -4.4882187 
    9800   0.45441543  0.086779163    0.6802599   -5.1677336   -4.4874737 
    9900    0.4538544  0.054584833   0.67942004   -5.1666322   -4.4872121 
   10000   0.46926325 -0.087644251   0.70248708   -5.1888193   -4.4863322 
   10100   0.46470542  -0.12199732   0.69566402   -5.1820291   -4.4863651 
   10200   0.45503736  -0.10323783   0.68119093   -5.1670987   -4.4859078 
   10300   0.43879507 -0.031136519   0.65687622   -5.1426834   -4.4858071 
   10400   0.45187988  -0.14998772   0.67646418   -5.1618472    -4.485383 
   10500    0.4814985  -0.34284265   0.72080326   -5.2057618   -4.4849586 
   10600   0.46403289  -0.22699052   0.69465724   -5.1793219   -4.4846646 
   10700   0.45279753  -0.11828271    0.6778379   -5.1628944   -4.4850565 
   10800   0.46108915 -0.090310842   0.69025045   -5.1757877   -4.4855372 
   10900   0.45212044  0.031602788   0.67682431   -5.1619694   -4.4851451 
   11000   0.45243029   0.11962356   0.67728814    -5.163119   -4.4858308 
   11100   0.44626086   0.22780202    0.6680525   -5.1542104   -4.4861579 
   11200   0.44879111   0.22498265    0.6718403   -5.1582153    -4.486375 
   11300   0.46650107   0.10578469    0.6983521   -5.1848327   -4.4864806 
   11400   0.46276402   0.10427526   0.69275773   -5.1795312   -4.4867735 
   11500   0.45754217   0.12057147   0.68494062   -5.1728556    -4.487915 
   11600   0.45834268   0.12018888   0.68613899   -5.1744757   -4.4883368 
   11700   0.45597184   0.15127458   0.68258985   -5.1712891   -4.4886993 
   11800    0.4581292   0.17080966   0.68581941   -5.1750429   -4.4892235 
   11900   0.47064523   0.14552082   0.70455591   -5.1945959     -4.49004 
   12000   0.44864206   0.30835243   0.67161717   -5.1616874   -4.4900702 
   12100    0.4841183   0.15805394    0.7247251   -5.2147331    -4.490008 
   12200   0.47653754   0.25310765    0.7133767   -5.2032723   -4.4898956 
   12300   0.46616857   0.37546672   0.69785436   -5.1867375   -4.4888831 
   12400   0.49092237    0.2485474   0.73491079   -5.2240569   -4.4891461 
   12500   0.49181098   0.21066024   0.73624103   -5.2252899   -4.4890488 
   12600   0.47672577   0.26648352   0.71365848   -5.2038792   -4.4902207 
   12700   0.46473164   0.32646934   0.69570326   -5.1855324   -4.4898291 
   12800   0.48831621   0.17660111   0.73100936     -5.22064   -4.4896307 
   12900   0.46764444   0.21768198   0.70006372   -5.1894983   -4.4894346 
   13000   0.46815657   0.11401617   0.70083039   -5.1890247   -4.4881943 
   13100   0.49277821  -0.11280906   0.73768899   -5.2266035   -4.4889145 
   13200   0.45632612  0.022957883   0.68312021   -5.1720333   -4.4889131 
   13300   0.45153766  0.017827842   0.67595188   -5.1652251   -4.4892732 
   13400   0.43804411  0.063462296   0.65575204   -5.1438172   -4.4880651 
   13500   0.42642473   0.12236322   0.63835782   -5.1256436   -4.4872858 
   13600   0.42264346   0.13333298   0.63269726   -5.1197537   -4.4870564 
   13700   0.45079043 -0.019907504   0.67483327   -5.1615282   -4.4866949 
   13800   0.44694262 -0.0088531512    0.6690731   -5.1544296   -4.4853565 
   13900   0.45635725 -0.061248226    0.6831668   -5.1688776   -4.4857108 
   14000    0.4357578  0.040797833   0.65232943   -5.1370927   -4.4847633 
   14100   0.44857943 -0.035724385    0.6715234   -5.1568085   -4.4852851 
   14200   0.44089304 0.0055003051   0.66001688   -5.1448365   -4.4848196 
   14300   0.45155988 -0.018738363   0.67598514   -5.1618865   -4.4859014 
   14400   0.45091095  0.010386747   0.67501368   -5.1614414   -4.4864278 
   14500   0.43912478  0.097090714    0.6573698   -5.1439891   -4.4866193 
   14600   0.44624367  0.082453039   0.66802677   -5.1548125   -4.4867858 
   14700    0.4224599   0.23298245   0.63242247   -5.1199581   -4.4875356 
   14800   0.42755004    0.2206486   0.64004242   -5.1271221   -4.4870797 
   14900   0.44610068   0.11517715   0.66781272   -5.1547948   -4.4869821 
   15000   0.44653408   0.13488281   0.66846152   -5.1552266   -4.4867651 
   15100   0.45974782   0.10962094   0.68824248   -5.1738985    -4.485656 
   15200   0.45459344   0.17572893   0.68052638   -5.1668343   -4.4863079 
   15300   0.44792332   0.22317549    0.6705412   -5.1562296   -4.4856884 
   15400   0.45970648   0.11245253    0.6881806   -5.1740225   -4.4858419 
   15500   0.47628509 -0.046660378   0.71299879   -5.1987438    -4.485745 
   15600   0.44885351  0.054946093   0.67193371   -5.1574172   -4.4854835 
   15700   0.43063846   0.13875509   0.64466577   -5.1307049   -4.4860392 
   15800   0.44405148  0.013223029   0.66474507   -5.1502628   -4.4855177 
   15900    0.4510614 -0.080774397   0.67523891   -5.1609527   -4.4857137 
   16000   0.43066627 0.0051967262   0.64470741   -5.1309135   -4.4862061 
   16100   0.44795975 -0.029037649   0.67059574   -5.1567994   -4.4862037 
   16200   0.44588233  0.080863321   0.66748585   -5.1554825   -4.4879966 
   16300   0.46408809  0.065825001   0.69473987   -5.1822922   -4.4875523 
   16400   0.46553954    0.1168232   0.69691269   -5.1844993   -4.4875866 
   16500   0.44373718   0.26824385   0.66427456   -5.1523502   -4.4880756 
   16600   0.44948636    0.2481287   0.67288109   -5.1610836   -4.4882025 
   16700   0.43700844   0.32493693   0.65420164   -5.1426268   -4.4884251 
   16800   0.46919851   0.17226846   0.70239017   -5.1915326   -4.4891424 
   16900   0.45947387   0.24353258   0.68783239   -5.1762887   -4.4884563 
   17000   0.46723215   0.23736094   0.69944652   -5.1879364   -4.4884898 
   17100   0.45136546   0.32081216    0.6756941   -5.1644806   -4.4887865 
   17200   0.45548849   0.26266163   0.68186627   -5.1699034   -4.4880371 
   17300    0.4500491    0.2474938    0.6737235   -5.1614631   -4.4877396 
   17400   0.45644651   0.18555432   0.68330042   -5.1703546   -4.4870541 
   17500   0.44905311   0.20911222   0.67223251   -5.1593173   -4.4870848 
   17600   0.44316803   0.20784723   0.66342255   -5.1504741   -4.4870516 
   17700   0.45233406  0.097321086   0.67714409   -5.1639023   -4.4867582 
   17800   0.44388365  0.055774101   0.66449382    -5.151161   -4.4866672 
   17900   0.43812319  0.042055326   0.65587041   -5.1413596   -4.4854892 
   18000    0.4365902  0.021318414   0.65357553   -5.1391036   -4.4855281 
   18100   0.42796411  0.025697452   0.64066228   -5.1254717   -4.4848094 
   18200   0.44166632  -0.11943802   0.66117449   -5.1458544   -4.4846799 
   18300   0.44061352  -0.19248313   0.65959844   -5.1441473   -4.4845489 
   18400   0.43724959  -0.20624371   0.65456264   -5.1388508   -4.4842881 
   18500   0.41766733 -0.096402658     0.625248   -5.1102496   -4.4850016 
   18600   0.43752948  -0.15604857   0.65498163   -5.1402448   -4.4852631 
   18700   0.43646149 -0.096834336   0.65338285   -5.1384826   -4.4850997 
   18800   0.42564225  0.045160451   0.63718644   -5.1226456   -4.4854591 
   18900   0.43580989  0.091149489   0.65240741   -5.1382889   -4.4858815 
   19000   0.44032048   0.14051121   0.65915975   -5.1449443   -4.4857846 
   19100   0.42523263    0.2609067   0.63657324    -5.121766   -4.4851927 
   19200   0.44849426   0.15207445   0.67139591   -5.1575976   -4.4862017 
   19300   0.45308969   0.16148554   0.67827526   -5.1649991   -4.4867238 
   19400   0.44320345   0.24057702   0.66347556   -5.1513069   -4.4878314 
   19500   0.44609326    0.2062104   0.66780161   -5.1556359   -4.4878343 
   19600   0.45131563   0.14000644    0.6756195   -5.1629329   -4.4873134 
   19700   0.46349213  0.067314083   0.69384771   -5.1804435   -4.4865958 
   19800   0.44850389   0.14529105   0.67141033   -5.1583301   -4.4869198 
   19900   0.45973112  0.078446344   0.68821749   -5.1749443   -4.4867268 
   20000   0.46380617  0.061726277   0.69431783   -5.1813721   -4.4870542 
   20100   0.46335751   0.10460047   0.69364619   -5.1803743   -4.4867281 
   20200   0.44897091   0.22784256   0.67210945   -5.1596554   -4.4875459 
   20300   0.44109256   0.29660189   0.66031556   -5.1480267   -4.4877112 
   20400   0.43919364   0.30273935   0.65747287   -5.1450157   -4.4875428 
   20500   0.46230749   0.12494768   0.69207431   -5.1800866   -4.4880122 
   20600   0.47182595  0.014058471   0.70632344   -5.1938184    -4.487495 
   20700   0.46051774  0.042049475   0.68939506   -5.1764641    -4.487069 
   20800   0.46645924 0.0091651443   0.69828948   -5.1858158   -4.4875263 
   20900   0.46164218   0.07566357   0.69107834   -5.1777225   -4.4866442 
   21000   0.45196735   0.16279071   0.67659513   -5.1634362    -4.486841 
   21100   0.46041315   0.11905214   0.68923849   -5.1760112   -4.4867727 
   21200    0.4482411   0.17449465   0.67101692   -5.1576584   -4.4866415 
   21300   0.44684821   0.20081237   0.66893178   -5.1564524   -4.4875206 
   21400   0.44153249   0.23717389   0.66097414   -5.1479723   -4.4869982 
   21500   0.45050658    0.1836386   0.67440834   -5.1618644   -4.4874561 
   21600   0.43954424   0.23440543   0.65799772   -5.1455514   -4.4875537 
   21700   0.44751979   0.19089276   0.66993712   -5.1570013   -4.4870642 
   21800   0.44147622   0.21421436   0.66088989   -5.1485734   -4.4876835 
   21900   0.44812028   0.13386855   0.67083607   -5.1580344   -4.4871983 
   22000    0.4610581 0.0065324805   0.69020398    -5.175942    -4.485738 
   22100   0.44320354  0.040640485    0.6634757   -5.1485599   -4.4850842 
   22200   0.46824993  -0.12838764   0.70097015   -5.1857947   -4.4848246 
   22300   0.43526798  0.035390373   0.65159617   -5.1359304   -4.4843342 
   22400   0.40484896   0.18871986   0.60605889   -5.0906206   -4.4845617 
   22500   0.44445497 -0.048171924   0.66534909   -5.1492596   -4.4839105 
   22600   0.44469478 -0.058546751   0.66570808   -5.1492646   -4.4835565 
   22700   0.44646145 -0.060598915    0.6683528   -5.1527225   -4.4843697 
   22800   0.45092758  -0.11184236   0.67503859   -5.1593426    -4.484304 
   22900   0.45604468  -0.14092401   0.68269888   -5.1673925   -4.4846936 
   23000   0.44026512 -0.038078013   0.65907688   -5.1442596   -4.4851827 
   23100   0.44673654 -0.050688003    0.6687646   -5.1539151   -4.4851505 
   23200   0.44728019 -0.021777001   0.66957844   -5.1554753   -4.4858968 
   23300   0.45276018 -0.002400382   0.67778199   -5.1650464   -4.4872644 
   23400   0.45868472  0.028041537   0.68665102   -5.1748338   -4.4881828 
   23500   0.44967953   0.13183192   0.67317026   -5.1609932    -4.487823 
   23600   0.47125243   0.04279908   0.70546489   -5.1941407   -4.4886758 
   23700   0.45692794   0.14339134   0.68402112   -5.1719479   -4.4879268 
   23800   0.44433945    0.2584578   0.66517615   -5.1530052    -4.487829 
   23900   0.45394379     0.267167   0.67955386    -5.168233   -4.4886792 
   24000   0.44549848   0.36691516   0.66691122   -5.1556227   -4.4887115 
   24100   0.44633923   0.37947041   0.66816983   -5.1572481   -4.4890782 
   24200   0.44672438   0.36396683    0.6687464   -5.1573679   -4.4886215 
   24300   0.44586082   0.31928355   0.66745365   -5.1550638   -4.4876102 
   24400   0.44002102   0.26841623   0.65871146   -5.1452111   -4.4864996 
   24500   0.45949926  0.088169443    0.6878704   -5.1748534    -4.486983 
   24600   0.45126107  0.059330175   0.67553782   -5.1613102   -4.4857724 
   24700   0.44374416  0.073312704   0.66428501   -5.1502863   -4.4860013 
   24800   0.42887258   0.14894158   0.64202225   -5.1277996   -4.4857773 
   24900   0.43346171  0.096588718   0.64889218   -5.1350617   -4.4861695 
   25000   0.42671943  0.070042698   0.63879898    -5.124381    -4.485582 
   25100   0.41497498   0.04699288   0.62121755   -5.1068321   -4.4856146 
   25200   0.41448068 -0.045318888   0.62047757   -5.1047867   -4.4843091 
   25300   0.43763294  -0.24931024   0.65513651   -5.1392466   -4.4841101 
   25400   0.41892741  -0.18670737   0.62713433   -5.1104945   -4.4833601 
   25500   0.41818409  -0.17073782   0.62602158   -5.1099701   -4.4839485 
   25600   0.43574571  -0.24639613   0.65231133   -5.1364559   -4.4841445 
   25700   0.43727423   -0.2197736   0.65459952   -5.1388736   -4.4842741 
   25800   0.44373527  -0.20290865   0.66427171   -5.1492976   -4.4850258 
   25900   0.44606041  -0.14671533   0.66775243    -5.153013   -4.4852606 
   26000   0.44966211 -0.069772884   0.67314418   -5.1591249   -4.4859807 
   26100   0.45120585  0.049488901   0.67545516   -5.1623809   -4.4869258 
   26200   0.44983231   0.18112758   0.67339897   -5.1617614   -4.4883624 
   26300   0.45289501   0.26159024   0.67798383    -5.165922   -4.4879382 
   26400   0.45471939   0.31096011   0.68071493     -5.16973   -4.4890151 
   26500   0.47655865   0.24657788   0.71340829   -5.2029265   -4.4895182 
   26600   0.47320262   0.30591625   0.70838432    -5.197574   -4.4891897 
   26700   0.45671229   0.38823734    0.6836983   -5.1738664   -4.4901681 
   26800   0.46782007    0.2990696   0.70032664   -5.1905931   -4.4902664 
   26900   0.47248063   0.25007398    0.7073035     -5.19705   -4.4897464 
   27000   0.46420636   0.29059131   0.69491693   -5.1852152   -4.4902983 
   27100   0.46937122   0.30729824   0.70264872   -5.1940872   -4.4914385 
   27200     0.465175   0.35533468   0.69636698    -5.188035    -4.491668 
   27300    0.4726689    0.3080621   0.70758535   -5.1983068   -4.4907215 
   27400   0.46552435   0.33855792   0.69688995   -5.1867953   -4.4899053 
   27500   0.45835251     0.337153   0.68615371   -5.1761899   -4.4900362 
   27600   0.47198814   0.20239463   0.70656625   -5.1960067   -4.4894404 
   27700   0.46714888   0.17969702   0.69932187   -5.1886969    -4.489375 
   27800    0.4438638   0.25616668   0.66446411   -5.1525788   -4.4881147 
   27900   0.43392646    0.2495712   0.64958792   -5.1370883   -4.4875004 
   28000   0.43353157   0.14857069   0.64899676   -5.1368001   -4.4878033 
   28100   0.43570521   0.02468675   0.65225069   -5.1390096   -4.4867589 
   28200   0.43969086 -0.098064361   0.65821722   -5.1451401   -4.4869229 
   28300   0.41433888 -0.031443634   0.62026531    -5.106763   -4.4864977 
   28400    0.4183209  -0.10726902   0.62622639   -5.1123969   -4.4861705 
   28500    0.4395498  -0.24244604   0.65800604   -5.1439825   -4.4859764 
   28600   0.42908376  -0.18152928   0.64233839   -5.1277236   -4.4853852 
   28700   0.45844417  -0.26470525   0.68629092   -5.1712881   -4.4849972 
   28800   0.43408765 -0.030944176   0.64982922   -5.1344986   -4.4846694 
   28900   0.41280581   0.16017664   0.61797029   -5.1029334   -4.4849631 
   29000   0.44272684  0.046065809   0.66276208   -5.1486108   -4.4858487 
   29100   0.44750018  0.091350518   0.66990778   -5.1557634   -4.4858557 
   29200   0.42649154   0.28478457   0.63845784   -5.1250644   -4.4866065 
   29300   0.43667188   0.25746452    0.6536978   -5.1415116   -4.4878138 
   29400   0.45875759   0.13149783   0.68676011    -5.175161   -4.4884009 
   29500   0.44616491   0.19324867   0.66790887   -5.1558843   -4.4879754 
   29600   0.44608429     0.204666   0.66778818   -5.1560249   -4.4882367 
   29700   0.45824655   0.12911125   0.68599509   -5.1731562   -4.4871611 
   29800   0.45625211   0.12135716   0.68300941   -5.1693564    -4.486347 
   29900   0.44029018   0.18216021   0.65911439   -5.1450372   -4.4859228 
   30000   0.43467701   0.18853302   0.65071148   -5.1358739   -4.4851624 
   30100    0.4433688    0.1269638   0.66372309   -5.1485275   -4.4848044 
   30200   0.42065617   0.19299128   0.62972228   -5.1140957   -4.4843735 
   30300   0.43509764  0.058792219   0.65134117   -5.1359767   -4.4846355 
   30400   0.41248542   0.12496485   0.61749067   -5.1019575   -4.4844668 
   30500   0.43715836 -0.067664494   0.65442606   -5.1395803   -4.4851542 
   30600   0.42376275 -0.059195708   0.63437284   -5.1195229   -4.4851501 
   30700   0.42793055 -0.077227184   0.64061204   -5.1247179   -4.4841059 
   30800   0.42467315 -0.025469785   0.63573571   -5.1206499   -4.4849142 
   30900   0.43294596  -0.03361597   0.64812011   -5.1328384   -4.4847183 
   31000   0.43175962 -0.012743187   0.64634416   -5.1313543   -4.4850101 
   31100   0.45558042   -0.1200766   0.68200389   -5.1673091   -4.4853052 
   31200   0.43290974  0.037336978   0.64806587   -5.1335336   -4.4854677 
   31300   0.42384362   0.15263267   0.63449391   -5.1201894   -4.4856955 
   31400   0.45020401  0.087668854    0.6739554   -5.1595214    -4.485566 
   31500   0.45752383  0.089549529   0.68491317   -5.1701516   -4.4852384 
   31600    0.4566115   0.11493477   0.68354742   -5.1694716   -4.4859242 
   31700    0.4539703    0.1551942   0.67959354   -5.1663684   -4.4867749 
   31800   0.44167727   0.21250263   0.66119088   -5.1474104   -4.4862195 
   31900   0.42958894   0.21554696   0.64309464   -5.1302602   -4.4871656 
   32000     0.426426   0.18509717   0.63835972   -5.1255622   -4.4872025 
   32100   0.42992972    0.1568194   0.64360479   -5.1311565   -4.4875517 
   32200   0.43996547   0.11453381    0.6586283   -5.1465077   -4.4878793 
   32300   0.44859434  0.074614129   0.67154573   -5.1583137    -4.486768 
   32400   0.45369863  0.062313852   0.67918685   -5.1651417   -4.4859549 
   32500   0.44915722  0.094345377   0.67238837   -5.1585722   -4.4861839 
   32600    0.4519733  0.070105175   0.67660404   -5.1631474   -4.4865434 
   32700   0.45043313  0.090166728   0.67429839   -5.1614044    -4.487106 
   32800   0.43707483   0.21880759   0.65430102   -5.1419923   -4.4876913 
   32900   0.42994086   0.29670767   0.64362146   -5.1321612   -4.4885397 
   33000   0.43731622   0.24866832   0.65466238   -5.1421583    -4.487496 
   33100   0.43948752   0.20272622   0.65791282   -5.1444892   -4.4865763 
   33200   0.44354586   0.14741712   0.66398815   -5.1506288   -4.4866407 
   33300   0.43404795   0.15256169   0.64976979   -5.1364109   -4.4866411 
   33400   0.43185756   0.10915969   0.64649077   -5.1329307   -4.4864399 
   33500   0.42902323  0.099588091   0.64224778   -5.1281994   -4.4859516 
   33600   0.41490298   0.18643607   0.62110976    -5.107157   -4.4860473 
   33700   0.43812224  0.073628043     0.655869   -5.1421082   -4.4862392 
   33800   0.44229559  0.051574583   0.66211649   -5.1478351   -4.4857186 
   33900   0.42672721   0.14672444   0.63881064   -5.1250201   -4.4862094 
   34000   0.44871195  0.040087517   0.67172179   -5.1576707   -4.4859489 
   34100   0.45306465  0.041701194   0.67823778   -5.1640252   -4.4857874 
   34200   0.44407613   0.10517014   0.66478196   -5.1510577   -4.4862757 
   34300   0.45765473  0.032067726   0.68510913   -5.1718145   -4.4867054 
   34400   0.43859594   0.13488989   0.65657812    -5.144208   -4.4876299 
   34500   0.44376038   0.13457417   0.66430928   -5.1523949   -4.4880856 
   34600   0.44961422    0.1367429   0.67307248   -5.1621708   -4.4890983 
   34700   0.42597044   0.28633915   0.63767774   -5.1274315   -4.4897537 
   34800   0.45072911   0.14324261   0.67474147   -5.1640395    -4.489298 
   34900   0.44841429   0.12830299    0.6712762   -5.1603828   -4.4891066 
   35000   0.43866829   0.20016118   0.65668643    -5.145761   -4.4890746 
   35100   0.43153231   0.25267886   0.64600386   -5.1346866   -4.4886827 
   35200   0.43636606   0.22025596      0.65324    -5.142836    -4.489596 
   35300   0.44704753   0.15707236   0.66923016   -5.1586968   -4.4894667 
   35400   0.42789078   0.24104494    0.6405525   -5.1294616   -4.4889091 
   35500   0.41308662   0.24958047   0.61839067   -5.1057323   -4.4873417 
   35600   0.44509995  0.014412911   0.66631462   -5.1526799   -4.4863652 
   35700   0.42899176  0.059952299   0.64220066   -5.1281731   -4.4859724 
   35800   0.43759853 -0.016101219   0.65508501   -5.1412558   -4.4861708 
   35900   0.43750921 -0.042672746   0.65495129   -5.1416173    -4.486666 
   36000   0.43709842 -0.058298796   0.65433634   -5.1403498   -4.4860135 
   36100   0.42589211 0.0080795014   0.63756049   -5.1235684   -4.4860079 
   36200   0.42475083  0.058192781     0.635852   -5.1219189   -4.4860669 
   36300   0.43933824  0.044056398   0.65768934   -5.1434615   -4.4857721 
   36400   0.44460195  0.056703741   0.66556913   -5.1517968   -4.4862277 
   36500   0.44152155   0.11398899   0.66095776     -5.14663   -4.4856722 
   36600   0.44827414    0.1481195   0.67106638   -5.1573595   -4.4862931 
   36700   0.44251918   0.24646476   0.66245122   -5.1489409   -4.4864897 
   36800   0.44702391   0.25059026   0.66919479   -5.1560441   -4.4868493 
   36900   0.44282783   0.24668539   0.66291326   -5.1493057   -4.4863925 
   37000   0.44670482   0.19162908   0.66871711   -5.1554282   -4.4867111 
   37100   0.45914977   0.10144259    0.6873472   -5.1751338   -4.4877866 
   37200    0.4369288    0.2280448   0.65408242    -5.142064   -4.4879815 
   37300   0.41883036   0.33877258   0.62698904   -5.1147448   -4.4877558 
   37400   0.43975152    0.2417794   0.65830803   -5.1458677   -4.4875596 
   37500    0.4384999   0.25046704   0.65643435   -5.1442539   -4.4878196 
   37600   0.44664266    0.2147053   0.66862407   -5.1557261    -4.487102 
   37700   0.45158217   0.19561638   0.67601851   -5.1637057   -4.4876872 
   37800   0.47611915  0.083190907   0.71275037   -5.2004696   -4.4877193 
   37900   0.47162709    0.1185478   0.70602575   -5.1936822   -4.4876565 
   38000   0.44445741   0.28654659   0.66535274   -5.1533251   -4.4879723 
   38100   0.44099621   0.31825189   0.66017132   -5.1481145   -4.4879432 
   38200   0.45641823   0.22155037   0.68325809    -5.170812   -4.4875539 
   38300   0.44883823   0.22137976   0.67191082   -5.1599535   -4.4880427 
   38400   0.46965261  0.039848179   0.70306995   -5.1909812   -4.4879113 
   38500   0.45900272  0.026988205   0.68712708   -5.1748435   -4.4877164 
   38600   0.45271976   0.03299468   0.67772148   -5.1649148   -4.4871933 
   38700   0.45370263  0.029408956   0.67919283   -5.1658359   -4.4866431 
   38800   0.44285512   0.11115732   0.66295411   -5.1506094   -4.4876553 
   38900   0.45152436   0.10243065   0.67593196   -5.1636191   -4.4876871 
   39000   0.44622857   0.17908343   0.66800418   -5.1551012    -4.487097 
   39100   0.45221705   0.20902324   0.67696892   -5.1648259    -4.487857 
   39200   0.44756049   0.26949984   0.66999805   -5.1588303   -4.4888323 
   39300   0.45137485   0.26283092   0.67570815   -5.1648015   -4.4890934 
   39400   0.46387231   0.21242663   0.69441684   -5.1830539    -4.488637 
   39500   0.45069497   0.27236932   0.67469036   -5.1630334   -4.4883431 
   39600   0.45614932   0.18776299   0.68285553   -5.1705154   -4.4876598 
   39700    0.4529259   0.11904614   0.67803007   -5.1655911    -4.487561 
   39800   0.45161972  0.059583682   0.67607473    -5.163605   -4.4875302 
   39900   0.45047306  0.050668584   0.67435818   -5.1617607   -4.4874025 
   40000   0.45489136  0.052087944   0.68097237   -5.1670379   -4.4860655 
   40100   0.45026009    0.1037943   0.67403935   -5.1604624   -4.4864231 
   40200   0.43022375   0.25043964   0.64404495   -5.1303042   -4.4862592 
   40300   0.44205797   0.21434311   0.66176078   -5.1478856   -4.4861249 
   40400   0.45627528   0.12897126   0.68304409   -5.1698528   -4.4868087 
   40500   0.44207248   0.18897948   0.66178251   -5.1480719   -4.4862894 
   40600   0.46763463  0.043015016   0.70004904   -5.1873874   -4.4873384 
   40700   0.46311875   0.10723844   0.69328876   -5.1798865   -4.4865977 
   40800   0.44239485   0.27681214    0.6622651   -5.1486406   -4.4863755 
   40900     0.436156    0.3204763   0.65292553   -5.1401496    -4.487224 
   41000   0.45262148    0.2057804   0.67757435   -5.1650672   -4.4874928 
   41100   0.44105114   0.23759913   0.66025355   -5.1479368   -4.4876832 
   41200   0.43365399   0.25346757   0.64918003   -5.1369646   -4.4877845 
   41300   0.44438688   0.17903751   0.66524716   -5.1523127   -4.4870655 
   41400   0.43912721   0.14848001   0.65737344   -5.1451277   -4.4877543 
   41500   0.42975732   0.14623565   0.64334671   -5.1304851   -4.4871384 
   41600   0.43669625   0.10418292   0.65373428   -5.1418168   -4.4880825 
   41700   0.44069457   0.11172092   0.65971977   -5.1474382   -4.4877185 
   41800   0.43917809   0.15788049   0.65744961   -5.1459675   -4.4885178 
   41900    0.4480275   0.17269065   0.67069716   -5.1583707   -4.4876735 
   42000   0.44915666   0.21749723   0.67238752   -5.1616276   -4.4892401 
   42100   0.45944305   0.17590468   0.68778625   -5.1766496   -4.4888633 
   42200   0.45388346    0.1770204   0.67946353   -5.1681955   -4.4887319 
   42300   0.45816973   0.11530657   0.68588009   -5.1741204   -4.4882403 
   42400   0.44801764   0.14156876    0.6706824   -5.1586483   -4.4879659 
   42500   0.45862508  0.094798256   0.68656174   -5.1736146   -4.4870529 
   42600   0.43799289   0.19545798   0.65567535   -5.1427269   -4.4870515 
   42700   0.43880115    0.1677746   0.65688532   -5.1442204   -4.4873351 
   42800    0.4355925    0.1596837   0.65208197   -5.1393513   -4.4872694 
   42900   0.45012385  0.063478926   0.67383541    -5.160778   -4.4869426 
   43000    0.4351973   0.13127042   0.65149036   -5.1376114   -4.4861211 
   43100   0.43623201  0.098539493   0.65303932   -5.1389975   -4.4859581 
   43200   0.44694011 0.0031300525   0.66906935    -5.155885   -4.4868156 
   43300   0.46014884 -0.098032482   0.68884281   -5.1753307   -4.4864879 
   43400   0.46087825 -0.080635802   0.68993474   -5.1772356   -4.4873009 
   43500   0.45132387  0.014989108   0.67563183   -5.1626068   -4.4869749 
   43600   0.45600438  0.038298719   0.68263856   -5.1707207   -4.4880821 
   43700   0.44753281    0.1415837   0.66995662   -5.1584951   -4.4885384 
   43800   0.44775024   0.20875049    0.6702821   -5.1591167   -4.4888346 
   43900   0.43875407   0.30770386   0.65681484   -5.1460407   -4.4892258 
   44000   0.44188132   0.29996552   0.66149634   -5.1511464   -4.4896501 
   44100   0.44702541    0.2555393   0.66919704   -5.1581048   -4.4889077 
   44200   0.43275734   0.30691135   0.64783774    -5.137069   -4.4892313 
   44300    0.4308372   0.27695256   0.64496329   -5.1340936   -4.4891303 
   44400    0.4602188  0.080744528   0.68894754   -5.1778335   -4.4888859 
   44500   0.44959727   0.14407902   0.67304711   -5.1622909   -4.4892438 
   44600   0.44093882   0.23378934   0.66008541   -5.1491328   -4.4890474 
   44700   0.45848928     0.170577   0.68635845   -5.1756852   -4.4893268 
   44800    0.4597766   0.16697595   0.68828557   -5.1781374   -4.4898519 
   44900   0.45230975   0.20493556    0.6771077   -5.1668614   -4.4897537 
   45000   0.43670185   0.30155634   0.65374267   -5.1438541   -4.4901114 
   45100     0.432652    0.3375036   0.64768004   -5.1369456   -4.4892655 
   45200   0.44764795   0.22979292   0.67012898   -5.1596575   -4.4895285 
   45300   0.44284676   0.23304611    0.6629416   -5.1526956    -4.489754 
   45400   0.43041764   0.28639329   0.64433521   -5.1338954   -4.4895602 
   45500   0.43527778   0.21856546   0.65161083   -5.1404232   -4.4888124 
   45600   0.44852275   0.13775441   0.67143856   -5.1598018   -4.4883633 
   45700   0.43077448   0.22468505    0.6448694   -5.1331646   -4.4882952 
   45800   0.41092433   0.31733402   0.61515373   -5.1033557    -4.488202 
   45900   0.43537534   0.17199437   0.65175689   -5.1398389    -4.488082 
   46000   0.43678173   0.14151339   0.65386225    -5.141389   -4.4875267 
   46100   0.41693398   0.19981643   0.62415017   -5.1106487   -4.4864985 
   46200   0.43440534  0.059507846    0.6503048   -5.1372272   -4.4869224 
   46300   0.43826161   0.03980088   0.65607762   -5.1441054   -4.4880277 
   46400   0.42648885   0.12593768    0.6384538   -5.1262183   -4.4877645 
   46500   0.42532022   0.14576986   0.63670438   -5.1247301   -4.4880257 
   46600   0.42466442   0.16744988   0.63572264    -5.123584   -4.4878613 
   46700   0.43640975   0.12892004   0.65330539    -5.141069   -4.4877636 
   46800   0.43645287   0.15512064   0.65336995   -5.1416587   -4.4882888 
   46900   0.45133106    0.1273438    0.6756426   -5.1649586    -4.489316 
   47000   0.45392503   0.19083249   0.67952577   -5.1689728    -4.489447 
   47100   0.45873868   0.22964844    0.6867318   -5.1767672   -4.4900354 
   47200   0.45010253   0.30880546   0.67380349   -5.1649815    -4.491178 
   47300   0.44282341   0.36569363   0.66290665   -5.1539728   -4.4910662 
   47400    0.4483405   0.37736955   0.67116572   -5.1611623   -4.4899966 
   47500   0.44328049   0.42161198   0.66359089   -5.1540753   -4.4904845 
   47600    0.4410644   0.40501576   0.66027341   -5.1513806   -4.4911072 
   47700   0.44640022   0.30172388   0.66826113   -5.1591687   -4.4909076 
   47800   0.47394723   0.08875149     0.709499   -5.2000841   -4.4905851 
   47900    0.4452272   0.20692275   0.66650512   -5.1560422   -4.4895371 
   48000   0.44575489   0.16569394   0.66729507   -5.1560755   -4.4887804 
   48100   0.45431141  0.070539631   0.68010418   -5.1684219   -4.4883177 
   48200   0.44709451  0.081105586   0.66930048   -5.1573568   -4.4880563 
   48300   0.47052745 -0.050370495   0.70437959   -5.1924112   -4.4880316 
   48400   0.44754678  0.080669456   0.66997753   -5.1587618   -4.4887843 
   48500   0.44458843   0.12768883   0.66554888   -5.1545294   -4.4889805 
   48600   0.44473457   0.15966918   0.66576766   -5.1547516   -4.4889839 
   48700   0.42821859   0.27351698   0.64104323   -5.1286705   -4.4876273 
   48800   0.45569737   0.13082002   0.68217896   -5.1704654   -4.4882865 
   48900   0.47041335  0.041914021   0.70420879   -5.1927563   -4.4885475 
   49000   0.45680698   0.13928324   0.68384004   -5.1724429   -4.4886029 
   49100   0.43772464   0.29832185   0.65527378   -5.1438413   -4.4885676 
   49200    0.4491355   0.28239152   0.67235585   -5.1615381   -4.4891823 
   49300   0.45183343   0.30331013   0.67639465   -5.1653485   -4.4889539 
   49400   0.45235892   0.33219468    0.6771813   -5.1655137   -4.4883324 
   49500   0.43395326   0.42470282   0.64962804   -5.1381234   -4.4884954 
   49600   0.45114454   0.26338045   0.67536338    -5.163564   -4.4882007 
   49700    0.4482595   0.19881973   0.67104447   -5.1592426   -4.4881981 
   49800    0.4496648   0.15925188    0.6731482   -5.1606961   -4.4875479 
   49900   0.45394917   0.14779376   0.67956191   -5.1671768   -4.4876148 
   50000   0.43171506   0.29571301   0.64627745   -5.1338919   -4.4876145 
   50100   0.43663996   0.28040635   0.65365002   -5.1417874   -4.4881373 
   50200    0.4310942   0.28685309   0.64534801   -5.1332859   -4.4879379 
   50300   0.43678577   0.23223064   0.65386829   -5.1434062   -4.4895379 
   50400   0.45311467   0.13176182   0.67831265   -5.1681153   -4.4898026 
   50500   0.43617968    0.1967115   0.65296099   -5.1424044   -4.4894434 
   50600   0.44452031   0.11314425    0.6654469    -5.155896   -4.4904491 
   50700    0.4315785   0.13315035   0.64607302   -5.1350132   -4.4889402 
   50800   0.43639541   0.06621124   0.65328393   -5.1409994   -4.4877155 
   50900    0.4404085  0.027114342   0.65929153   -5.1474657   -4.4881741 
   51000   0.43769684  0.068637458   0.65523217   -5.1437394   -4.4885072 
   51100   0.45231371  0.026447034   0.67711362   -5.1659808   -4.4888672 
   51200   0.43178308   0.14441458   0.64637927   -5.1348209   -4.4884417 
   51300   0.44727391  0.079313809   0.66956905   -5.1581105   -4.4885414 
   51400   0.42728205   0.19092218   0.63964123   -5.1289331   -4.4892919 
   51500   0.44207304   0.12428163   0.66178335   -5.1506517   -4.4888683 
   51600   0.43586162   0.17268378   0.65248485   -5.1415798   -4.4890949 
   51700   0.42797867   0.25565817   0.64068407   -5.1290581    -4.488374 
   51800   0.44007915   0.22188375   0.65879849   -5.1466502   -4.4878517 
   51900   0.44520307   0.21882467     0.666469   -5.1550388   -4.4885698 
   52000    0.4352578   0.27872967   0.65158093   -5.1406091   -4.4890282 
   52100   0.44896976   0.19971139   0.67210772   -5.1615634   -4.4894557 
   52200   0.44275886   0.22022144   0.66281002   -5.1524609   -4.4896509 
   52300   0.42885209   0.24704354   0.64199158   -5.1318369   -4.4898454 
   52400   0.46799201   0.01630383   0.70058404   -5.1908783   -4.4902942 
   52500   0.47907487 -0.025661793   0.71717508    -5.206457   -4.4892819 
   52600   0.47070543  0.099921816   0.70464603   -5.1941243   -4.4894783 
   52700   0.45612219   0.26559951   0.68281492   -5.1722255   -4.4894106 
   52800   0.46956061   0.26881734   0.70293224   -5.1930081   -4.4900758 
   52900   0.43789553   0.45979815   0.65552961   -5.1446149   -4.4890853 
   53000   0.46679596   0.27594135   0.69879355    -5.187982   -4.4891885 
   53100   0.47756155   0.13917526   0.71490964   -5.2043912   -4.4894815 
   53200   0.46134114   0.15097099   0.69062768   -5.1787707    -4.488143 
   53300   0.43107082   0.21928494   0.64531302   -5.1327676   -4.4874546 
   53400   0.44757402  0.057607085   0.67001831   -5.1569854   -4.4869671 
   53500   0.45082422 0.0085047226   0.67488386   -5.1618781   -4.4869942 
   53600   0.43877809  0.071161239    0.6568508   -5.1440739   -4.4872231 
   53700    0.4553614 -0.014300961   0.68167602   -5.1687663   -4.4870903 
   53800   0.45650149  0.021833959   0.68338274   -5.1704099   -4.4870272 
   53900   0.45134246   0.10455404   0.67565966   -5.1634024   -4.4877427 
   54000   0.44911571   0.16216194   0.67232621   -5.1601671   -4.4878409 
   54100   0.44582251     0.227449    0.6673963   -5.1556077   -4.4882114 
   54200   0.44444185   0.24758852   0.66532944   -5.1544191   -4.4890896 
   54300   0.45653659   0.13793407   0.68343527   -5.1737004   -4.4902652 
   54400   0.45672565  0.079804334    0.6837183   -5.1736712   -4.4899529 
   54500   0.44038722   0.13174769   0.65925966   -5.1479127    -4.488653 
   54600   0.44174744   0.14690714   0.66129592   -5.1510425   -4.4897465 
   54700   0.44975382   0.14734026   0.67328148   -5.1625108   -4.4892294 
   54800   0.44314317   0.23358355   0.66338533    -5.153427   -4.4900417 
   54900   0.45377121     0.226972    0.6792955   -5.1696975    -4.490402 
   55000   0.45765828   0.21845877   0.68511444   -5.1743076   -4.4891931 
   55100   0.46255711   0.18628804   0.69244799   -5.1813804   -4.4889324 
   55200   0.44383591   0.28008895   0.66442236   -5.1543648   -4.4899425 
   55300   0.45529663   0.20254267   0.68157906   -5.1709678   -4.4893887 
   55400   0.46344591   0.15076255   0.69377852   -5.1834969   -4.4897183 
   55500    0.4659098   0.18618938   0.69746697   -5.1879659    -4.490499 
   55600   0.45860435   0.32252677   0.68653071   -5.1770081   -4.4904774 
   55700   0.45361586   0.41354523   0.67906294   -5.1693126   -4.4902497 
   55800   0.45132031   0.41053652    0.6756265   -5.1655169   -4.4898904 
   55900   0.47137206   0.26285131   0.70564398   -5.1949132   -4.4892692 
   56000   0.43913939   0.37445008   0.65739166   -5.1465288   -4.4891371 
   56100   0.44349227   0.26157236   0.66390793   -5.1527817   -4.4888738 
   56200   0.45003735    0.1102043   0.67370591    -5.161245   -4.4875391 
   56300   0.43138514   0.09446883   0.64578356    -5.132611   -4.4868275 
   56400   0.45164334  -0.10178842   0.67611009   -5.1620315   -4.4859214 
   56500   0.43488002 -0.084237154   0.65101539   -5.1364125   -4.4853971 
   56600   0.43035066 -0.089676751   0.64423494   -5.1294001   -4.4851651 
   56700   0.42441511 -0.037033775   0.63534942   -5.1204119   -4.4850625 
   56800   0.42209502 -0.026163824   0.63187625   -5.1159579   -4.4840816 
   56900   0.43004594 -0.069458697   0.64377877   -5.1282699   -4.4844912 
   57000   0.44600545  -0.14712334   0.66767015   -5.1526199   -4.4849498 
   57100   0.43130094 -0.055988888   0.64565751   -5.1314225    -4.485765 
   57200   0.42183811 0.0084237983   0.63149165    -5.117483   -4.4859914 
   57300   0.42893595 0.0010772785   0.64211711   -5.1277176   -4.4856004 
   57400   0.42225701  0.052705878   0.63211875   -5.1174616   -4.4853429 
   57500   0.41235007   0.10667778   0.61728806   -5.1024935   -4.4852054 
   57600   0.42151632  0.086028179   0.63100993   -5.1165039    -4.485494 
   57700   0.42332655   0.10475844   0.63371985   -5.1195079   -4.4857881 
   57800    0.4492555 -0.0027648567   0.67253549   -5.1583222   -4.4857867 
   57900   0.44561522  0.081365411   0.66708598   -5.1536842   -4.4865982 
   58000   0.42957678   0.29518676   0.64307644   -5.1301208   -4.4870443 
   58100   0.42117564   0.44228092   0.63049993   -5.1184346   -4.4879347 
   58200   0.44078003   0.39831629   0.65984771   -5.1477833   -4.4879356 
   58300   0.42231535   0.51871269   0.63220608   -5.1202997   -4.4880936 
   58400   0.44976906   0.37388601   0.67330429   -5.1608438   -4.4875395 
   58500    0.4681946   0.24263677   0.70088731   -5.1894391   -4.4885518 
   58600   0.44922563   0.30165331   0.67249077   -5.1611687   -4.4886779 
   58700   0.45467971   0.24838635   0.68065552   -5.1698905    -4.489235 
   58800   0.43764404   0.32876059   0.65515313    -5.143764   -4.4886109 
   58900   0.45110031   0.30165821   0.67529716   -5.1633942    -4.488097 
   59000     0.431834   0.41344624    0.6464555   -5.1341242   -4.4876687 
   59100   0.44545626   0.28753768   0.66684802   -5.1541536   -4.4873056 
   59200   0.44975172   0.20181342   0.67327832   -5.1599638   -4.4866855 
   59300   0.44882909   0.17956232   0.67189715   -5.1584643   -4.4865672 
   59400   0.44072876   0.18303885   0.65977095       -5.147    -4.487229 
   59500    0.4356108   0.13042895   0.65210936   -5.1383911   -4.4862817 
   59600   0.46086348 -0.098937696   0.68991263    -5.175223   -4.4853104 
   59700   0.45498876  -0.16628944   0.68111817    -5.165971   -4.4848528 
   59800   0.44527986  -0.18711762   0.66658395   -5.1514587   -4.4848747 
   59900    0.4432266  -0.19637713   0.66351022   -5.1482577   -4.4847474 
   60000   0.42591556 -0.099458962    0.6375956   -5.1218356     -4.48424 
   60100   0.40260863  0.019789842   0.60270512   -5.0885076   -4.4858025 
   60200   0.43291767  -0.13871686   0.64807775   -5.1338249   -4.4857471 
   60300   0.43236358 -0.087782793   0.64724829   -5.1339306   -4.4866823 
   60400   0.43918837 -0.0087036886   0.65746499   -5.1435292   -4.4860642 
   60500   0.41882858   0.21255952   0.62698638   -5.1137056   -4.4867192 
   60600   0.43088101   0.27178778   0.64502887   -5.1322021   -4.4871732 
   60700    0.4427445   0.30611305   0.66278851    -5.150088   -4.4872995 
   60800   0.45857344   0.30126146   0.68648444    -5.175454   -4.4889695 
   60900    0.4544476   0.35836423   0.68030806    -5.169115   -4.4888069 
   61000    0.4391391   0.42697946   0.65739123   -5.1470831   -4.4896919 
   61100   0.44146089   0.38654577   0.66086696   -5.1508497   -4.4899828 
   61200   0.45774632   0.25879494   0.68524623   -5.1750011   -4.4897548 
   61300   0.46252798   0.20374444   0.69240439   -5.1832939   -4.4908895 
   61400   0.45684975   0.22662487   0.68390407   -5.1745625   -4.4906584 
   61500   0.45798937   0.19562262   0.68561009   -5.1751607   -4.4895506 
   61600    0.4598024   0.17526682   0.68832419   -5.1778796   -4.4895554 
   61700   0.45766178   0.21646551   0.68511969   -5.1750668   -4.4899471 
   61800   0.44501185   0.31791805   0.66618274   -5.1570422   -4.4908595 
   61900   0.44787153   0.30739238   0.67046367    -5.161258   -4.4907943 
   62000   0.43554296   0.36655832   0.65200781   -5.1431614   -4.4911536 
   62100   0.44533199   0.33316395   0.66666198   -5.1579287   -4.4912667 
   62200   0.44542452   0.35028974   0.66680051   -5.1569132   -4.4901126 
   62300   0.44913878   0.32267108   0.67236075   -5.1629892   -4.4906285 
   62400   0.45997364   0.24051204   0.68858054   -5.1780033   -4.4894227 
   62500   0.46333996   0.20733713   0.69361993   -5.1834179    -4.489798 
   62600   0.44728213   0.27940527   0.66958134   -5.1597697   -4.4901883 
   62700   0.43861699   0.27633488   0.65660964   -5.1465715   -4.4899619 
   62800   0.44642749   0.13661377   0.66830196   -5.1576033   -4.4893013 
   62900    0.4623608 -0.038167709   0.69215412   -5.1805736   -4.4884195 
   63000   0.46412171 -0.060991554   0.69479021   -5.1827836   -4.4879934 
   63100    0.4540743  0.027587495   0.67974923    -5.167352   -4.4876027 
   63200   0.45732162  0.032578478   0.68461047   -5.1716862   -4.4870757 
   63300   0.44005918   0.11855673    0.6587686   -5.1460074   -4.4872388 
   63400   0.41842733   0.19905442   0.62638572   -5.1136251   -4.4872394 
   63500   0.44048555  0.039668499   0.65940687   -5.1479848   -4.4885779 
   63600   0.44398168  0.016520403   0.66464057   -5.1525081   -4.4878675 
   63700   0.42692271    0.1422188   0.63910329   -5.1263859   -4.4872826 
   63800   0.42966586   0.17441474   0.64320979   -5.1312401   -4.4880303 
   63900   0.42454236   0.24790436   0.63553991   -5.1236067   -4.4880668 
   64000   0.43668211   0.21325152   0.65371312   -5.1415195   -4.4878064 
   64100   0.44562677   0.17429626   0.66710327   -5.1549766   -4.4878733 
   64200   0.42465795   0.27019653   0.63571296   -5.1235434   -4.4878304 
   64300   0.42870454   0.24205164    0.6417707   -5.1295537    -4.487783 
   64400    0.4464158   0.13101157   0.66828445   -5.1562975    -4.488013 
   64500   0.44455433   0.13059887   0.66549783   -5.1528921   -4.4873943 
   64600   0.44212409    0.1190899   0.66185977   -5.1489239   -4.4870642 
   64700   0.41783326   0.24533117   0.62549639   -5.1130275   -4.4875311 
   64800   0.43949867   0.17699403   0.65792951   -5.1458194   -4.4878899 
   64900   0.44489264   0.20173208   0.66600429   -5.1543833    -4.488379 
   65000    0.4478954    0.2326525   0.67049942   -5.1589755   -4.4884761 
   65100    0.4537558   0.22565794   0.67927244   -5.1673092   -4.4880368 
   65200   0.45603229   0.21765336   0.68268034   -5.1716008   -4.4889205 
   65300    0.4359812   0.32210951   0.65266385   -5.1417415   -4.4890777 
   65400   0.45615351   0.19990777   0.68286181   -5.1719074   -4.4890455 
   65500    0.4463282   0.26505483   0.66815331   -5.1564792   -4.4883259 
   65600    0.4401653   0.29775332   0.65892745    -5.148038   -4.4891105 
   65700   0.43904395   0.28639882   0.65724879   -5.1462013   -4.4889526 
   65800   0.44158772   0.26986789   0.66105682   -5.1498834   -4.4888266 
   65900   0.43478617   0.29881252   0.65087489   -5.1398298   -4.4889549 
   66000   0.45447344   0.19667075   0.68034674   -5.1693666   -4.4890198 
   66100   0.44780014   0.25877631   0.67035681   -5.1591817   -4.4888249 
   66200   0.43438643   0.34876011   0.65027649   -5.1389596   -4.4886831 
   66300   0.45624457    0.1831393   0.68299813   -5.1711776   -4.4881795 
   66400   0.47018876  0.068860366   0.70387257    -5.191733   -4.4878604 
   66500   0.47909247  0.033456504   0.71720143   -5.2058445   -4.4886431 
   66600   0.47717176  0.063947652   0.71432612   -5.2036991    -4.489373 
   66700   0.47038558   0.15788636   0.70416721    -5.193605   -4.4894378 
   66800    0.4583288   0.29521962   0.68611821   -5.1755957   -4.4894775 
   66900   0.47887616   0.24535134   0.71687762    -5.206261   -4.4893833 
   67000   0.46314296   0.35845022   0.69332501   -5.1835948   -4.4902698 
   67100   0.46976967   0.36464186    0.7032452   -5.1934181   -4.4901729 
   67200   0.45041209    0.5007287    0.6742669   -5.1645618   -4.4902949 
   67300   0.45209313   0.50484546   0.67678341   -5.1671098   -4.4903264 
   67400   0.45509224   0.46004512   0.68127308   -5.1725633   -4.4912903 
   67500   0.46442873   0.37061388   0.69524981   -5.1864102   -4.4911604 
   67600   0.46507723   0.33171599   0.69622061   -5.1865308   -4.4903102 
   67700   0.47169082   0.26944791   0.70612116    -5.196497   -4.4903759 
   67800   0.44721882    0.3597814   0.66948657   -5.1591744   -4.4896878 
   67900   0.44928186   0.27882433   0.67257495   -5.1614484   -4.4888734 
   68000   0.42753312   0.29318303   0.64001708   -5.1281239   -4.4881068 
   68100   0.44713354  0.081681565   0.66935891   -5.1567492   -4.4873903 
   68200   0.44982955 -0.050992692   0.67339483   -5.1595121   -4.4861173 
   68300   0.43369052 -0.021077988   0.64923471   -5.1352199   -4.4859852 
   68400   0.44131145 -0.087868943   0.66064323   -5.1459734   -4.4853301 
   68500   0.43742869 -0.095258692   0.65483075   -5.1401267   -4.4852959 
   68600   0.41654865 -0.027161814   0.62357334   -5.1091864    -4.485613 
   68700   0.44578769  -0.20012232   0.66734417   -5.1529925   -4.4856483 
   68800   0.44481917  -0.17842902    0.6658943   -5.1513388   -4.4854445 
   68900   0.43765894 -0.065837189   0.65517543   -5.1403279   -4.4851525 
   69000   0.43082032  0.048525719   0.64493802   -5.1303844   -4.4854463 
   69100   0.44303398  0.020220672   0.66322186   -5.1492232   -4.4860013 
   69200   0.45349707 0.0065136005   0.67888512   -5.1658025   -4.4869173 
   69300   0.44643237   0.10165431   0.66830925   -5.1555202    -4.487211 
   69400   0.43850364   0.14979034   0.65643995   -5.1438441   -4.4874041 
   69500   0.44558793  0.085331388   0.66704513   -5.1545472   -4.4875021 
   69600   0.45096968  0.026537876   0.67510161   -5.1626383   -4.4875367 
   69700   0.44611894  0.049656447   0.66784005    -5.155344    -4.487504 
   69800   0.43440164   0.14110771   0.65029925   -5.1381658   -4.4878665 
   69900   0.45182286  0.080222644   0.67637883   -5.1657118    -4.489333 
   70000   0.46318747  0.078981648   0.69339165    -5.182529   -4.4891374 
   70100   0.44636285   0.24906908   0.66820519   -5.1576064   -4.4894012 
   70200   0.45525389   0.27977219   0.68151507   -5.1709424   -4.4894274 
   70300   0.45746995   0.33595369   0.68483251   -5.1746522   -4.4898197 
   70400   0.46647912   0.36571849   0.69831924   -5.1878798   -4.4895605 
   70500   0.48095455   0.34626677   0.71998895    -5.209583    -4.489594 
   70600   0.46617677   0.43436353   0.69786663   -5.1873992   -4.4895326 
   70700   0.47507786   0.33745821   0.71119156   -5.2017686    -4.490577 
   70800   0.47005005   0.30347328   0.70366493   -5.1953855   -4.4917206 
   70900   0.45726538   0.35449397   0.68452627   -5.1775222   -4.4929959 
   71000   0.45303011   0.33414527   0.67818607   -5.1702327   -4.4920466 
   71100   0.46061539   0.23073789   0.68954124   -5.1808793   -4.4913381 
   71200   0.45239068   0.24749295   0.67722884    -5.168664   -4.4914351 
   71300   0.46220158   0.19614032   0.69191576   -5.1816534   -4.4897376 
   71400   0.46186192   0.18797705    0.6914073   -5.1805986   -4.4891913 
   71500   0.42924552   0.36371503   0.64258054   -5.1316384   -4.4890579 
   71600    0.4471648   0.24541379   0.66940571   -5.1579494   -4.4885437 
   71700   0.46186846    0.1097011   0.69141708   -5.1788242   -4.4874071 
   71800   0.44802506   0.14495238   0.67069352   -5.1580909   -4.4873974 
   71900   0.44752741   0.11101225   0.66994853   -5.1580639   -4.4881154 
   72000   0.44072714  0.091337162   0.65976854   -5.1476557   -4.4878872 
   72100   0.43340205  0.064808923   0.64880287   -5.1359721   -4.4871692 
   72200   0.43308656  0.032710121   0.64833058   -5.1346806     -4.48635 
   72300    0.4466077  -0.05397196   0.66857173   -5.1550818   -4.4865101 
   72400   0.43736237 -0.0087594702   0.65473146   -5.1408475    -4.486116 
   72500   0.44719975 -0.035433324   0.66945803   -5.1547571   -4.4852991 
   72600   0.44339323 0.00037282865   0.66375967   -5.1492218   -4.4854621 
   72700   0.44689494 -0.0047809083   0.66900172   -5.1550217     -4.48602 
   72800     0.447971 0.0068770649   0.67061259   -5.1570193   -4.4864067 
   72900   0.46523069 -0.070573933   0.69645034   -5.1833144   -4.4868641 
   73000   0.47076946 -0.048539377   0.70474188   -5.1913487   -4.4866069 
   73100   0.45198358  0.097852742   0.67661942   -5.1633232   -4.4867038 
   73200   0.46339948  0.073795114   0.69370902   -5.1816511    -4.487942 
   73300   0.43307588    0.2750759   0.64831459   -5.1380495   -4.4897349 
   73400   0.46259219   0.14800309   0.69250051   -5.1834443   -4.4909438 
   73500   0.47216667   0.11420933   0.70683351   -5.1977731   -4.4909396 
   73600   0.46118069   0.23470214   0.69038749   -5.1810631   -4.4906756 
   73700   0.44108372   0.39743265   0.66030233   -5.1522591   -4.4919568 
   73800   0.46114925   0.34278545   0.69034042   -5.1826246   -4.4922842 
   73900   0.44908731   0.43441132    0.6722837   -5.1650573   -4.4927736 
   74000   0.46543157   0.37800874   0.69675106   -5.1884814   -4.4917303 
   74100   0.46608496   0.40429604   0.69772918   -5.1884162    -4.490687 
   74200   0.44945367   0.46795254   0.67283215   -5.1635833   -4.4907512 
   74300   0.47681607   0.26630264   0.71379366   -5.2040896   -4.4902959 
   74400   0.45397849   0.30007131   0.67960579   -5.1697642   -4.4901584 
   74500   0.45133566    0.2243975   0.67564948   -5.1648269   -4.4891774 
   74600   0.45395414   0.11944554   0.67956935   -5.1670725   -4.4875032 
   74700   0.44543383   0.12761761   0.66681444   -5.1550686   -4.4882541 
   74800   0.43539197   0.15443085   0.65178178   -5.1394441   -4.4876623 
   74900    0.4336622   0.11985276   0.64919232   -5.1359727   -4.4867803 
   75000   0.43992776  0.027337335   0.65857186   -5.1455844   -4.4870126 
   75100   0.44413914 -0.051726267    0.6648763    -5.150787   -4.4859107 
   75200   0.44172008 -0.058316808   0.66125495   -5.1465716   -4.4853167 
   75300   0.46203527   -0.1579307    0.6916668    -5.176726   -4.4850592 
   75400   0.44676551 -0.059306555   0.66880796   -5.1537183   -4.4849103 
   75500    0.4391368 -0.012921685    0.6573878   -5.1428197   -4.4854319 
   75600   0.43499046  0.025510161   0.65118071   -5.1368428   -4.4856621 
   75700   0.42571773   0.11298123   0.63729943    -5.124105   -4.4868056 
   75800   0.44658439  0.035875026   0.66853684    -5.155904   -4.4873671 
   75900   0.43963095   0.13572061   0.65812753   -5.1460109   -4.4878833 
   76000    0.4436564   0.18866286   0.66415363   -5.1529847   -4.4888311 
   76100   0.45355467   0.21422603   0.67897135   -5.1677054   -4.4887341 
   76200   0.45397287   0.27951348   0.67959739   -5.1688543   -4.4892569 
   76300   0.46457887   0.25737615   0.69547457   -5.1856775    -4.490203 
   76400    0.4786327   0.20820886   0.71651315   -5.2069447   -4.4904315 
   76500   0.46526586     0.327538   0.69650299   -5.1874621   -4.4909591 
   76600   0.46219018   0.37782514   0.69189869   -5.1839025   -4.4920038 
   76700   0.46105027   0.36363128   0.69019226   -5.1805975   -4.4904052 
   76800   0.45772514   0.34359902   0.68521453   -5.1767272   -4.4915126 
   76900   0.46877283   0.27099992   0.70175292   -5.1923847   -4.4906318 
   77000   0.46686846   0.27101416   0.69890208    -5.188522     -4.48962 
   77100   0.45839312   0.28547597    0.6862145     -5.17652   -4.4903055 
   77200    0.4689429   0.18376668   0.70200752   -5.1917929   -4.4897854 
   77300   0.45735197   0.21579963   0.68465589   -5.1746717   -4.4900158 
   77400    0.4493108   0.20175197   0.67261827   -5.1621036   -4.4894853 
   77500   0.45367472  0.088685529   0.67915105   -5.1679157   -4.4887647 
   77600    0.4339368     0.109933   0.64960339   -5.1377117   -4.4881084 
   77700   0.43304738  0.065367453   0.64827193   -5.1359589   -4.4876869 
   77800   0.42815778  0.063954787    0.6409522   -5.1280152    -4.487063 
   77900   0.44193136 -0.031873013   0.66157124    -5.148439   -4.4868677 
   78000   0.44069729 -0.020550389   0.65972384   -5.1462299   -4.4865061 
   78100   0.43156687  0.064339113   0.64605561   -5.1324123   -4.4863567 
   78200   0.42947439  0.095708176   0.64292316   -5.1305555   -4.4876323 
   78300   0.42442086   0.12778809   0.63535803   -5.1241312   -4.4887731 
   78400   0.43207196   0.10101314   0.64681172   -5.1355537    -4.488742 
   78500   0.43725036  0.078909324   0.65456379   -5.1423665   -4.4878027 
   78600   0.45719705 -0.024533489   0.68442399   -5.1725187   -4.4880947 
   78700   0.44391612   0.08128888   0.66454243   -5.1534867   -4.4889443 
   78800   0.42320332   0.27268175   0.63353538   -5.1229474   -4.4894121 
   78900   0.42941337   0.29718258   0.64283182   -5.1327188    -4.489887 
   79000   0.43854176   0.27194797   0.65649701   -5.1465782   -4.4900811 
   79100   0.43475182   0.28616205   0.65082348    -5.141299   -4.4904755 
   79200    0.4333621    0.2785374   0.64874307   -5.1396109   -4.4908678 
   79300   0.43526169   0.24539725   0.65158675    -5.142871   -4.4912843 
   79400   0.45858747   0.13119754   0.68650544   -5.1771049   -4.4905995 
   79500   0.44824927   0.23555614   0.67102916   -5.1620511    -4.491022 
   79600   0.44980027   0.26881484   0.67335101    -5.164113    -4.490762 
   79700   0.44800594   0.26238737   0.67066489    -5.161555   -4.4908901 
   79800   0.46726358   0.14677161   0.69949358   -5.1908386    -4.491345 
   79900   0.45874621   0.19921201   0.68674308   -5.1789519   -4.4922088 
   80000   0.48125054   0.14869813   0.72043205   -5.2128454   -4.4924134 
   80100   0.45719708   0.35526828   0.68442403   -5.1771657   -4.4927416 
   80200   0.46593147   0.36438841   0.69749942   -5.1902094     -4.49271 
   80300    0.4697203   0.35705196   0.70317129   -5.1957495   -4.4925782 
   80400   0.46784049   0.35194953   0.70035722   -5.1919505   -4.4915932 
   80500    0.4580223   0.34799919   0.68565938    -5.177807   -4.4921476 
   80600   0.46542895   0.26011434   0.69674713   -5.1891915   -4.4924444 
   80700   0.47090547   0.17617904   0.70494548   -5.1971625    -4.492217 
   80800   0.46059385    0.2062662   0.68950899   -5.1808122   -4.4913032 
   80900   0.44343931   0.29078991   0.66382865   -5.1538593   -4.4900306 
   81000   0.44956485    0.2576344   0.67299858   -5.1624002   -4.4894016 
   81100   0.46616017   0.15492733   0.69784177   -5.1870523   -4.4892105 
   81200     0.454723   0.19103108   0.68072033   -5.1702237   -4.4895034 
   81300   0.46882018  0.099842932   0.70182381   -5.1908362   -4.4890124 
   81400   0.47225523  0.062215543   0.70696607    -5.196638   -4.4896719 
   81500   0.45753969   0.11153789   0.68493691   -5.1743156   -4.4893787 
   81600   0.41927628   0.27736001   0.62765659   -5.1170317   -4.4893752 
   81700     0.446058   0.12186152   0.66774882    -5.156759   -4.4890102 
   81800    0.4519415  0.094829066   0.67655643   -5.1662288   -4.4896723 
   81900   0.44150514   0.17900381    0.6609332   -5.1521062    -4.491173 
   82000   0.46187629   0.14389169   0.69142881   -5.1824674   -4.4910386 
   82100   0.45919941   0.23248133   0.68742152   -5.1790471   -4.4916256 
   82200   0.44367312   0.35849239   0.66417865   -5.1562277    -4.492049 
   82300   0.45226146   0.33975098   0.67703541   -5.1697104    -4.492675 
   82400   0.45955535   0.32803221   0.68795436   -5.1795561   -4.4916017 
   82500   0.47051106   0.29519268   0.70435506   -5.1951452   -4.4907901 
   82600   0.47342331   0.28343784   0.70871469   -5.2001864   -4.4914717 
   82700   0.46551236   0.30296369   0.69687201   -5.1890609   -4.4921888 
   82800   0.45749472   0.31446458    0.6848696   -5.1766004   -4.4917308 
   82900   0.45813672   0.27767712   0.68583067    -5.177528   -4.4916973 
   83000   0.44704594   0.25505364   0.66922778   -5.1611128   -4.4918851 
   83100   0.46596136  0.067993994   0.69754415   -5.1894646   -4.4919205 
   83200   0.45692979   0.04683718    0.6840239   -5.1748978   -4.4908739 
   83300   0.45372768  0.019500961   0.67923033   -5.1700509   -4.4908205 
   83400   0.46886791 -0.062311966   0.70189526   -5.1913773   -4.4894821 
   83500   0.46425897   0.01386503   0.69499567   -5.1846307   -4.4896351 
   83600   0.47733483  0.027074444   0.71457024   -5.2046517   -4.4900814 
   83700   0.47704393   0.11141689   0.71413476   -5.2046044   -4.4904696 
   83800   0.45640603   0.31193521   0.68323982   -5.1737763   -4.4905365 
   83900   0.47265118   0.31699743   0.70755882    -5.199597   -4.4920382 
   84000   0.47165977   0.37185062   0.70607467   -5.1982538   -4.4921791 
   84100   0.46288466   0.43930003   0.69293834   -5.1851938   -4.4922554 
   84200    0.4549441   0.47772255   0.68105132   -5.1734368   -4.4923855 
   84300   0.47179466   0.35015187    0.7062766    -5.198393   -4.4921164 
   84400   0.46651019   0.34108877   0.69836575   -5.1896668   -4.4913011 
   84500   0.47197517   0.27408096   0.70654683   -5.1988612   -4.4923144 
   84600   0.45216529   0.33298017   0.67689143   -5.1680896   -4.4911982 
   84700   0.44956495   0.31747891   0.67299873   -5.1638651   -4.4908663 
   84800   0.45926013   0.20668184   0.68751241   -5.1778582   -4.4903458 
   84900   0.47245898  0.068335938   0.70727109   -5.1965407   -4.4892697 
   85000    0.4661942  0.050128097   0.69789272   -5.1863451   -4.4884524 
   85100   0.42395951   0.22018228   0.63466739    -5.122585   -4.4879176 
   85200   0.43527589  0.061828972   0.65160801   -5.1382522   -4.4866441 
   85300   0.44802869  -0.12409593   0.67069894   -5.1565347   -4.4858357 
   85400   0.43166315 -0.096783785   0.64619973    -5.132909   -4.4867093 
   85500    0.4415815  -0.17497753   0.66104751   -5.1474649   -4.4864174 
   85600   0.46343656  -0.29750615   0.69376453   -5.1796272   -4.4858626 
   85700    0.4575473  -0.22553427   0.68494831   -5.1718866   -4.4869383 
   85800   0.45196671  -0.13489349   0.67659416   -5.1637027   -4.4871085 
   85900   0.45240659 -0.047043324   0.67725267   -5.1647843   -4.4875316 
   86000   0.46398988 -0.029447388   0.69459285   -5.1830696   -4.4884768 
   86100   0.46630587  0.023139158   0.69805989   -5.1885275   -4.4904676 
   86200    0.4595204   0.13131574   0.68790203   -5.1792028   -4.4913008 
   86300   0.47562114   0.13962768   0.71200485   -5.2032721   -4.4912672 
   86400   0.46966668   0.25272521   0.70309103   -5.1951081   -4.4920171 
   86500   0.47935731   0.25866436    0.7175979   -5.2092917   -4.4916938 
   86600   0.48079097   0.31832269   0.71974408   -5.2126703   -4.4929262 
   86700    0.4682995   0.48185822   0.70104436    -5.194853   -4.4938086 
   86800   0.48376233   0.49632183    0.7241922   -5.2189437   -4.4947515 
   86900   0.47864218   0.56514508   0.71652735   -5.2109865   -4.4944591 
   87000   0.48482959   0.55267023    0.7257899   -5.2213601   -4.4955702 
   87100   0.48601903   0.54507073   0.72757048   -5.2240482   -4.4964777 
   87200   0.49147164   0.50517695   0.73573305   -5.2313633   -4.4956302 
   87300   0.48402823   0.49955701   0.72459026   -5.2197954   -4.4952051 
   87400   0.45403549   0.63883253   0.67969113   -5.1748427   -4.4951515 
   87500   0.45246065   0.60635895    0.6773336   -5.1717672   -4.4944336 
   87600   0.47652572   0.38904565     0.713359   -5.2059008   -4.4925418 
   87700   0.47117446   0.32152719   0.70534817   -5.1963271   -4.4909789 
   87800   0.47507325   0.19552945   0.71118466   -5.2018685   -4.4906838 
   87900   0.50056391 -0.020845386   0.74934418   -5.2397348   -4.4903906 
   88000   0.47419722   0.08038664   0.70987324   -5.1990892   -4.4892159 
   88100   0.47680078   0.03164126   0.71377076   -5.2020419   -4.4882711 
   88200   0.44842296   0.14556432   0.67128916   -5.1597012    -4.488412 
   88300    0.4404213   0.12729456   0.65931069   -5.1483792   -4.4890685 
   88400    0.4596545 -0.032288666   0.68810279   -5.1763573   -4.4882545 
   88500   0.44661594  0.004502356   0.66858406   -5.1562866   -4.4877025 
   88600   0.46379398 -0.095490334   0.69429959   -5.1817488   -4.4874492 
   88700   0.46632737  -0.11053509   0.69809208   -5.1855086   -4.4874165 
   88800   0.45549931  -0.03641342   0.68188247    -5.169658   -4.4877755 
   88900   0.45797961 -0.0049743009   0.68559547   -5.1742801   -4.4886846 
   89000   0.45986954 0.0060279172    0.6884247   -5.1780101   -4.4895854 
   89100   0.45925162  0.028184176   0.68749968   -5.1774153   -4.4899156 
   89200   0.46136311  0.065383829   0.69066057   -5.1806462   -4.4899856 
   89300   0.46612247   0.10690535   0.69778533   -5.1880971   -4.4903117 
   89400   0.43486648    0.3507263   0.65099511   -5.1420892   -4.4910941 
   89500   0.45862678   0.27548185   0.68656429   -5.1775945   -4.4910302 
   89600   0.46798111    0.2517278   0.70056773   -5.1919333   -4.4913656 
   89700   0.46405047    0.3230543   0.69468356   -5.1862061   -4.4915226 
   89800   0.47155772   0.34069631    0.7059219   -5.1977369    -4.491815 
   89900   0.45806645   0.41548267   0.68572547   -5.1778237   -4.4920983 
   90000   0.46548432   0.35123796   0.69683003   -5.1879553   -4.4911252 
   90100    0.4631937   0.32857051   0.69340097   -5.1850446   -4.4916436 
   90200   0.47095534   0.23840193   0.70502014   -5.1964681   -4.4914479 
   90300    0.4625969   0.25593773   0.69250757   -5.1848356   -4.4923281 
   90400   0.44402091   0.30656398    0.6646993   -5.1574556   -4.4927563 
   90500   0.49315347 -0.016542576   0.73825075   -5.2300305   -4.4917798 
   90600   0.45632791   0.14014684   0.68312288    -5.174475   -4.4913521 
   90700   0.46259929   0.11545255   0.69251114   -5.1835067   -4.4909955 
   90800   0.45703383   0.16472292   0.68417964   -5.1743535   -4.4901739 
   90900    0.4610751   0.13838511   0.69022943   -5.1790969   -4.4888675 
   91000   0.48266781 -0.016434048   0.72255371   -5.2110539   -4.4885002 
   91100   0.48002005 -0.032021635   0.71859002   -5.2071882   -4.4885982 
   91200   0.46990216  0.015384149   0.70344354   -5.1921775   -4.4887339 
   91300    0.4606925  0.069730669   0.68965667   -5.1782253   -4.4885687 
   91400   0.44498766   0.15624363   0.66614653   -5.1547156   -4.4885691 
   91500   0.48419947 -0.033219928   0.72484661   -5.2139321   -4.4890855 
   91600    0.4790254  0.031851612   0.71710103   -5.2073924   -4.4902913 
   91700   0.46699263   0.13822901   0.69908797   -5.1896078   -4.4905198 
   91800   0.46990923   0.14820059   0.70345412   -5.1940778   -4.4906237 
   91900   0.45784216   0.25249523   0.68538971   -5.1765719   -4.4911822 
   92000   0.45292952   0.32003156   0.67803549   -5.1688873   -4.4908518 
   92100   0.44638515   0.35103686   0.66823857   -5.1596425   -4.4914039 
   92200   0.45720483   0.26617344   0.68443563   -5.1764262   -4.4919906 
   92300   0.46857288    0.2207358    0.7014536   -5.1934812   -4.4920276 
   92400   0.44127142   0.40769366   0.66058331   -5.1521625   -4.4915792 
   92500   0.45492281   0.32958182   0.68101944   -5.1720777   -4.4910582 
   92600   0.44952078   0.30773118   0.67293261   -5.1627852   -4.4898526 
   92700   0.44520838   0.27266917   0.66647695   -5.1569488   -4.4904719 
   92800   0.45622137    0.1578643   0.68296339   -5.1732472   -4.4902838 
   92900   0.45736455   0.10404388   0.68467472   -5.1748266   -4.4901519 
   93000   0.46939504  0.025241901   0.70268438   -5.1914997   -4.4888153 
   93100   0.46103188   0.06958041   0.69016473   -5.1784249   -4.4882602 
   93200   0.44736427    0.1148181   0.66970431   -5.1564309   -4.4867266 
   93300    0.4656166 -0.034892554   0.69702804   -5.1832632   -4.4862352 
   93400   0.44091563  0.048256049    0.6600507   -5.1462215   -4.4861708 
   93500   0.43566667  0.030512508   0.65219301   -5.1388216   -4.4866286 
   93600   0.42733369 -0.010000458   0.63971853   -5.1262177   -4.4864992 
   93700   0.45528937  -0.22189135   0.68156818   -5.1674156   -4.4858474 
   93800   0.45534635   -0.2648512   0.68165349   -5.1684811   -4.4868276 
   93900   0.46830123   -0.3111008   0.70104694    -5.187579    -4.486532 
   94000   0.45267033  -0.17425712   0.67764748   -5.1647436   -4.4870961 
   94100   0.46639588  -0.14314262   0.69819463   -5.1857178   -4.4875232 
   94200   0.45722805  0.021435751    0.6844704   -5.1721548   -4.4876844 
   94300   0.45896291   0.10924962   0.68706747   -5.1751106   -4.4880431 
   94400    0.4804257  0.058304934   0.71919727   -5.2081206   -4.4889233 
   94500   0.45343465   0.24444866   0.67879167   -5.1684287   -4.4896371 
   94600   0.47836381   0.19502847   0.71611062   -5.2073491   -4.4912385 
   94700   0.48135624   0.27970755   0.72059029   -5.2125163    -4.491926 
   94800   0.48083369    0.3525328   0.71980803   -5.2119331   -4.4921251 
   94900   0.46387968   0.46982697   0.69442788   -5.1880848   -4.4936569 
   95000    0.4402066   0.65225701   0.65898929   -5.1527099   -4.4937206 
   95100   0.44149007   0.68490658   0.66091063   -5.1547292   -4.4938186 
   95200   0.46181621   0.54936845   0.69133886    -5.184733   -4.4933941 
   95300    0.4769054    0.3935159   0.71392738    -5.207159   -4.4932316 
   95400    0.4693678   0.33751337   0.70264359   -5.1951603   -4.4925167 
   95500   0.45936088   0.27664606   0.68766323   -5.1804078   -4.4927446 
   95600    0.4747038  0.088014653   0.71063158   -5.2026929   -4.4920614 
   95700   0.44917366   0.15384974   0.67241296    -5.162741    -4.490328 
   95800   0.44649301   0.14602074   0.66840004   -5.1579155   -4.4895155 
   95900   0.44360741   0.10189732   0.66408029   -5.1528773    -4.488797 
   96000   0.44032401  0.041353097   0.65916504   -5.1469547   -4.4877896 
   96100   0.45412775 -0.096800707   0.67982924   -5.1676197   -4.4877904 
   96200   0.45491302  -0.13655381   0.68100478   -5.1680409   -4.4870362 
   96300   0.44898346  -0.11262544   0.67212824   -5.1582825   -4.4861543 
   96400   0.43929459 -0.085247082     0.657624   -5.1446355   -4.4870115 
   96500   0.45856852  -0.19720637   0.68647707   -5.1735823   -4.4871052 
   96600   0.46116261  -0.18349702   0.69036043   -5.1765848   -4.4862244 
   96700   0.44576228 -0.049673807   0.66730614   -5.1527489   -4.4854428 
   96800   0.43179603  0.051599635   0.64639866   -5.1326903   -4.4862916 
   96900   0.45332921 -0.062512797   0.67863383   -5.1656795   -4.4870457 
   97000   0.46117246 -0.086725477   0.69037517   -5.1782047   -4.4878295 
   97100   0.43964232  0.058559496   0.65814455   -5.1467925   -4.4886479 
   97200   0.45520574  0.044446684     0.681443   -5.1705163   -4.4890733 
   97300   0.45891573  0.098949891   0.68699684   -5.1763355   -4.4893387 
   97400   0.44091707   0.26262246   0.66005285   -5.1496852   -4.4896324 
   97500   0.45271046   0.25076065   0.67770757   -5.1679985    -4.490291 
   97600    0.4530667   0.28863115   0.67824085   -5.1691715   -4.4909306 
   97700   0.48300913   0.18849585   0.72306466   -5.2155331   -4.4924684 
   97800   0.44493601   0.44096231   0.66606921   -5.1589679   -4.4928987 
   97900   0.46664219    0.3808973   0.69856336   -5.1908788   -4.4923154 
   98000   0.47691534   0.34909928   0.71394226   -5.2070384   -4.4930962 
   98100   0.47483276   0.40374858   0.71082464   -5.2031042   -4.4922796 
   98200   0.45797592   0.53846341   0.68558995   -5.1790167   -4.4934267 
   98300   0.47680804   0.46345723   0.71378163   -5.2067166    -4.492935 
   98400   0.48008355   0.42386077   0.71868508   -5.2113272   -4.4926421 
   98500   0.48592509   0.33265483   0.72742986   -5.2197787   -4.4923488 
   98600   0.49563987   0.20353435   0.74197289   -5.2340486   -4.4920757 
   98700   0.48103839   0.21477726   0.72011447   -5.2120798   -4.4919653 
   98800   0.47592187   0.16371184   0.71245503   -5.2026562   -4.4902012 
   98900   0.45988805   0.17427112   0.68845241   -5.1789682   -4.4905158 
   99000   0.46709855   0.11103449   0.69924653   -5.1899968   -4.4907503 
   99100   0.46443073   0.10454652    0.6952528    -5.185937   -4.4906842 
   99200   0.46947293  0.069969953   0.70280097   -5.1926134   -4.4898124 
   99300   0.46921316  0.081061148    0.7024121   -5.1918632   -4.4894511 
   99400   0.44600421   0.21974936   0.66766831   -5.1569867   -4.4893184 
   99500   0.45349544   0.15310592   0.67888268   -5.1676784   -4.4887957 
   99600   0.47118561 -0.0026549503   0.70536486   -5.1955962   -4.4902313 
   99700   0.48422392 -0.091748127   0.72488321   -5.2144297   -4.4895465 
   99800   0.47233781  0.012872666    0.7070897   -5.1962163   -4.4891266 
   99900   0.46489998   0.11527002   0.69595528   -5.1851181   -4.4891628 
  100000    0.4610884    0.1990184   0.69024934   -5.1800308   -4.4897814 
  100100   0.44936698   0.29257394   0.67270237   -5.1620904    -4.489388 
  100200   0.45877643   0.25220812   0.68678831   -5.1766969   -4.4899086 
  100300   0.48419269   0.11440096   0.72483646   -5.2161118   -4.4912753 
  100400   0.45031248   0.32467826   0.67411778   -5.1646767   -4.4905589 
  100500   0.47062837   0.24836279   0.70453066   -5.1967527    -4.492222 
  100600   0.49046128   0.15753033   0.73422054   -5.2258573   -4.4916367 
  100700   0.49344975    0.1876092   0.73869428   -5.2292876   -4.4905933 
  100800   0.48523124   0.31386448   0.72639116   -5.2181602    -4.491769 
  100900   0.49676417   0.34621988   0.74365597   -5.2360843   -4.4924283 
  101000     0.495667   0.43414063    0.7420135   -5.2344395    -4.492426 
  101100   0.47941996    0.5349307   0.71769168   -5.2092353   -4.4915436 
  101200   0.49408311   0.39537636   0.73964242   -5.2313173   -4.4916749 
  101300   0.49645182    0.2844939   0.74318838   -5.2344977   -4.4913093 
[...]
  975900   0.44569099   0.10842435   0.66719941   -5.1542074    -4.487008 
  976000   0.45920696 -0.066849026   0.68743282   -5.1739996   -4.4865668 
  976100   0.45991932  -0.16444263   0.68849922   -5.1756555   -4.4871563 
  976200    0.4351612  -0.07367823   0.65143631   -5.1388523    -4.487416 
  976300   0.44667543  -0.13814345   0.66867312   -5.1554395   -4.4867663 
  976400   0.43696102 -0.085340489   0.65413065   -5.1409343   -4.4868036 
  976500   0.44597597  -0.10813025   0.66762603   -5.1538773   -4.4862512 
  976600   0.45287007 -0.090166646    0.6779465     -5.16446   -4.4865135 
  976700   0.44594204  0.015776969   0.66757523   -5.1537296   -4.4861544 
  976800   0.44798438  0.065038789   0.67063262    -5.157569   -4.4869364 
  976900   0.44688893   0.13895397   0.66899272   -5.1558231   -4.4868304 
  977000   0.44867863   0.19280636    0.6716719   -5.1583703   -4.4866984 
  977100   0.45430202   0.19798321   0.68009012   -5.1669183   -4.4868282 
  977200   0.46395028   0.14304359   0.69453357    -5.181526   -4.4869924 
  977300   0.45360087   0.15188319    0.6790405   -5.1668216   -4.4877811 
  977400   0.46760879  0.018085106   0.70001036   -5.1881217   -4.4881114 
  977500   0.45682046  0.030644755   0.68386022     -5.17162   -4.4877597 
  977600   0.46446759 -0.020992431   0.69530798   -5.1835572   -4.4882492 
  977700    0.4682144 -0.044424016   0.70091696   -5.1894235   -4.4885065 
  977800   0.45683948  0.039594153   0.68388871   -5.1724604   -4.4885717 
  977900   0.45749813  0.071300126    0.6848747   -5.1725633   -4.4876886 
  978000   0.45628049   0.10594883   0.68305189   -5.1710998   -4.4880479 
  978100    0.4601392   0.11101723   0.68882838   -5.1773979   -4.4885696 
  978200   0.47186086  0.068611106    0.7063757   -5.1946835   -4.4883078 
  978300   0.47155361  0.097724239   0.70591575   -5.1948449   -4.4889292 
  978400   0.46395552   0.16821379   0.69454142   -5.1846456   -4.4901041 
  978500   0.47013289   0.14997464   0.70378893   -5.1942267   -4.4904378 
  978600   0.45082179   0.25406747   0.67488022   -5.1650979   -4.4902177 
  978700   0.47340408   0.14300109   0.70868592   -5.1994279    -4.490742 
  978800   0.46009735   0.23325192   0.68876573   -5.1792095   -4.4904438 
  978900   0.46283936     0.235252   0.69287052   -5.1836728   -4.4908023 
  979000   0.49027339  0.085978959   0.73393926   -5.2243582   -4.4904189 
  979100   0.47773062   0.11900968   0.71516274   -5.2052568   -4.4900941 
  979200   0.46566769   0.14737852   0.69710454   -5.1873947   -4.4902902 
  979300   0.45741105   0.19176231   0.68474435   -5.1748126   -4.4900683 
  979400   0.43633613   0.30691528   0.65319519    -5.142577   -4.4893818 
  979500   0.44192439   0.28515719   0.66156081   -5.1504643   -4.4889035 
  979600   0.46574777   0.16733328   0.69722442   -5.1864566   -4.4892321 
  979700   0.46623312   0.17921471   0.69795098   -5.1872539   -4.4893029 
  979800   0.46051503   0.20277609     0.689391   -5.1781672   -4.4887762 
  979900   0.43964483   0.29142563    0.6581483   -5.1464016   -4.4882533 
  980000   0.44977533   0.20633155   0.67331367    -5.161744   -4.4884303 
  980100   0.44151957   0.18531559   0.66095479   -5.1496456   -4.4886908 
  980200    0.4283943   0.17311411   0.64130626   -5.1311101   -4.4898039 
  980300   0.43109564  0.081728129   0.64535018   -5.1347316   -4.4893814 
  980400    0.4319958  0.032698778   0.64669772   -5.1347741   -4.4880764 
  980500   0.45307109  -0.09514275   0.67824742   -5.1645607   -4.4863132 
  980600   0.45330028  -0.12880849   0.67859052   -5.1651309   -4.4865404 
  980700   0.45773202  -0.16005662   0.68522483   -5.1716064   -4.4863816 
  980800   0.41747243  0.069476998   0.62495623    -5.111435   -4.4864787 
  980900    0.4373019 0.0052475957   0.65464094   -5.1421965   -4.4875555 
  981000   0.43822969  0.022972702   0.65602985   -5.1436178    -4.487588 
  981100   0.46012199 -0.086523391   0.68880262   -5.1751844   -4.4863818 
  981200   0.44350453  0.014626467   0.66392629   -5.1499538   -4.4860275 
  981300   0.46467019 -0.097958234   0.69561127   -5.1818025   -4.4861912 
  981400   0.44798572 -0.042218003   0.67063462   -5.1565958   -4.4859612 
  981500   0.44030437  0.012498578   0.65913564    -5.145229   -4.4860933 
  981600    0.4287535   0.11427541   0.64184399   -5.1270887   -4.4852447 
  981700   0.45043135  0.033406145   0.67429573   -5.1600952   -4.4857994 
  981800   0.45223324  0.047746536   0.67699317   -5.1630171   -4.4860239 
  981900   0.44322842   0.15193164   0.66351294   -5.1506472   -4.4871343 
  982000   0.42570323   0.29330507   0.63727773   -5.1245085   -4.4872308 
  982100   0.45161247   0.22469538   0.67606386    -5.163263   -4.4871992 
  982200   0.45975154   0.26100725   0.68824806   -5.1769064   -4.4886583 
  982300   0.46451684   0.32297799   0.69538171   -5.1853724   -4.4899907 
  982400   0.46318388   0.40704228   0.69338626   -5.1827565   -4.4893702 
  982500   0.46410134   0.45875776   0.69475971   -5.1837777    -4.489018 
  982600   0.49085023   0.35140465    0.7348028   -5.2244956   -4.4896928 
  982700   0.47055757    0.4745729   0.70442468   -5.1950381   -4.4906134 
  982800   0.47072705   0.44478066   0.70467839   -5.1953209   -4.4906425 
  982900   0.46603118   0.40577765   0.69764868   -5.1891393   -4.4914906 
  983000   0.45381426   0.38453829   0.67935994   -5.1697087   -4.4903488 
  983100   0.47523276   0.17506975   0.71142344   -5.2018367   -4.4904132 
  983200   0.46429253    0.1446823   0.69504592   -5.1841121   -4.4890662 
  983300   0.44943699     0.170749   0.67280717   -5.1625264   -4.4897193 
  983400   0.44853372   0.13416287   0.67145498   -5.1604219   -4.4889669 
  983500   0.46697704   0.04119644   0.69906463   -5.1879936   -4.4889289 
  983600   0.44389911   0.18533747   0.66451697   -5.1527922   -4.4882752 
  983700    0.4623434   0.13684495   0.69212806   -5.1807296   -4.4886015 
  983800   0.45689509   0.24467115   0.68397194   -5.1715831   -4.4876111 
  983900   0.45317523   0.31716603   0.67840332   -5.1659499   -4.4875466 
  984000   0.45853905   0.27828123   0.68643297   -5.1736238   -4.4871909 
  984100   0.44017182   0.32917811   0.65893721   -5.1463397   -4.4874025 
  984200   0.46256327    0.1358292   0.69245722   -5.1801188   -4.4876616 
  984300   0.45435543   0.11406932   0.68017008   -5.1677295   -4.4875594 
  984400   0.45829713  0.072306171   0.68607081   -5.1743808     -4.48831 
  984500   0.45463792  0.073071706   0.68059297   -5.1689341   -4.4883411 
  984600   0.46023784  0.052274298   0.68897605   -5.1768398   -4.4878638 
  984700   0.47143944 0.0045664486   0.70574484   -5.1946238    -4.488879 
  984800   0.46874206  0.061136507   0.70170686   -5.1910173   -4.4893104 
  984900   0.46297696   0.15104163    0.6930765   -5.1833002   -4.4902237 
  985000   0.48008147   0.12431543   0.71868196   -5.2087445   -4.4900625 
  985100    0.4653716   0.25385424   0.69666129   -5.1857405   -4.4890792 
  985200   0.45718323   0.32830919    0.6844033   -5.1742336   -4.4898303 
  985300   0.45872246    0.3308181   0.68670752   -5.1762016   -4.4894941 
  985400    0.4420354   0.41043924   0.66172699   -5.1521345   -4.4904075 
  985500   0.46884029   0.24633975   0.70185391   -5.1918013   -4.4899473 
  985600   0.49596936  0.088523976   0.74246613   -5.2325836   -4.4901175 
  985700   0.47468893   0.21098713   0.71060934   -5.2012193     -4.49061 
  985800   0.44091115   0.40129838     0.660044   -5.1505229   -4.4904789 
  985900   0.45652622   0.27720355   0.68341975   -5.1739007    -4.490481 
  986000   0.46035632   0.18653751   0.68915341   -5.1802497   -4.4910963 
  986100   0.45847387   0.15004432   0.68633539   -5.1774318   -4.4910964 
  986200     0.460209   0.11715151   0.68893287   -5.1784612   -4.4895283 
  986300   0.46773145  0.054595878   0.70019398   -5.1891726   -4.4889786 
  986400   0.47508969  0.012068985   0.71120927   -5.1989392   -4.4877299 
  986500   0.47632875 0.0048840654   0.71306414   -5.2013875   -4.4883233 
  986600   0.45745218    0.1348227   0.68480591   -5.1732926   -4.4884867 
  986700   0.44509196   0.21952341   0.66630266    -5.154169   -4.4878664 
  986800   0.46266085    0.1018736   0.69260329    -5.181693   -4.4890897 
  986900   0.47098881  0.027694885   0.70507025   -5.1944307   -4.4893604 
  987000   0.45395349  0.070453534   0.67956838   -5.1700455   -4.4904771 
  987100   0.45163245  0.035548166   0.67609378     -5.16634   -4.4902462 
  987200   0.43733963   0.11836141   0.65469743   -5.1437671   -4.4890696 
  987300    0.4483004   0.10119712    0.6711057   -5.1605248   -4.4894191 
  987400   0.44102984   0.16622483   0.66022167   -5.1492304   -4.4890087 
  987500   0.45690284  0.095956537   0.68398355   -5.1733894   -4.4894059 
  987600    0.4482408    0.1670849   0.67101648   -5.1596386   -4.4886221 
  987700   0.45001889   0.21863779   0.67367828   -5.1622733    -4.488595 
  987800   0.42576684    0.3853461   0.63737296   -5.1260342   -4.4886612 
  987900   0.43482053   0.34597944   0.65092634   -5.1397831   -4.4888568 
  988000   0.44153953   0.30477303   0.66098467   -5.1505872   -4.4896025 
  988100   0.43030748   0.34893116    0.6441703   -5.1340971   -4.4899268 
  988200   0.44715414   0.26475543   0.66938974   -5.1592208   -4.4898311 
  988300   0.44805108   0.25569192   0.67073247   -5.1605673   -4.4898349 
  988400   0.45290617   0.22108013   0.67800054   -5.1668242   -4.4888237 
  988500   0.45257151   0.19573348   0.67749955   -5.1660689   -4.4885694 
  988600   0.47421588  0.076699102   0.70990117   -5.1977564   -4.4878553 
  988700   0.45765403   0.19537147   0.68510809   -5.1741672   -4.4890591 
  988800   0.44539876   0.28382692   0.66676194   -5.1561134   -4.4893514 
  988900   0.45815772   0.19586191   0.68586211   -5.1741048   -4.4882427 
  989000   0.45823971   0.12889713   0.68598485   -5.1743622   -4.4883773 
  989100   0.48015974 -0.056594109   0.71879913   -5.2077059   -4.4889068 
  989200   0.45679893  0.014984549     0.683828    -5.172628      -4.4888 
  989300    0.4549323  0.026376217   0.68103365   -5.1700647    -4.489031 
  989400   0.43912225   0.12308291     0.657366    -5.146459    -4.489093 
  989500   0.43217961   0.18088844   0.64697288   -5.1358713   -4.4888984 
  989600   0.43617862   0.17771061    0.6529594   -5.1410736   -4.4881142 
  989700   0.44794272   0.10978644   0.67057026   -5.1581573    -4.487587 
  989800   0.44809517   0.10105692   0.67079847    -5.159528   -4.4887295 
  989900   0.44180864     0.135069   0.66138753   -5.1507072   -4.4893196 
  990000   0.45403967  0.092259544   0.67969738   -5.1687843    -4.489087 
  990100   0.46116067   0.11165139   0.69035752   -5.1784964   -4.4881388 
  990200   0.46953272   0.12449725   0.70289048    -5.190997   -4.4881065 
  990300   0.45472472    0.2152826   0.68072291   -5.1688957   -4.4881728 
  990400   0.42607652   0.32986088   0.63783655   -5.1265682   -4.4887317 
  990500    0.4406619   0.21250641   0.65967086   -5.1490312   -4.4893604 
  990600   0.45893034  0.077648251   0.68701872   -5.1768396   -4.4898209 
  990700   0.44540739   0.10509951   0.66677486   -5.1560075   -4.4892326 
  990800   0.45093033  0.028758662   0.67504271    -5.163655   -4.4886123 
  990900   0.46536362 -0.061448393   0.69664933   -5.1855909   -4.4889416 
  991000   0.45962995 0.0090669824   0.68806603   -5.1779839   -4.4899178 
  991100   0.46784186  0.065983763   0.70035927   -5.1900124   -4.4896532 
  991200   0.45003448    0.2588821   0.67370162   -5.1628618   -4.4891602 
  991300    0.4494901   0.33747476   0.67288668   -5.1629262   -4.4900395 
  991400   0.44758964   0.37737325   0.67004168   -5.1610211   -4.4909795 
  991500   0.47023177   0.26380609   0.70393696   -5.1950108   -4.4910739 
  991600   0.47323444   0.23693883   0.70843196   -5.1993428   -4.4909109 
  991700   0.47622194   0.23864481   0.71290425   -5.2051199   -4.4922157 
  991800   0.45264684   0.38138663   0.67761232   -5.1691267   -4.4915144 
  991900   0.46006907   0.34107615    0.6887234   -5.1800216   -4.4912982 
  992000   0.49144263   0.17860887   0.73568961   -5.2269551   -4.4912654 
  992100   0.47244192    0.2924499   0.70724556   -5.1994247   -4.4921791 
  992200    0.4371988   0.46275181    0.6544866   -5.1462724   -4.4917858 
  992300    0.4605003   0.31056811   0.68936894   -5.1809598   -4.4915908 
  992400   0.45913106   0.28593101   0.68731919   -5.1783244   -4.4910052 
  992500   0.48842367   0.10424321   0.73117023    -5.222079   -4.4909088 
  992600   0.45693547   0.21900276    0.6840324   -5.1748025   -4.4907701 
  992700   0.48211909   0.08961869   0.72173228   -5.2111741   -4.4894419 
  992800   0.46976432   0.16962889   0.70323719   -5.1924822    -4.489245 
  992900   0.45694158    0.2212965   0.68404155   -5.1745618   -4.4905202 
  993000   0.45894598   0.18184551   0.68704213   -5.1766701    -4.489628 
  993100   0.45324614   0.17005169   0.67850946   -5.1672549   -4.4887455 
  993200   0.45452008   0.12115488   0.68041656   -5.1698836    -4.489467 
  993300   0.44510448   0.15669256   0.66632141   -5.1549686   -4.4886472 
  993400    0.4395173   0.19844258   0.65795739   -5.1460158   -4.4880584 
  993500   0.44311757   0.20380346     0.663347   -5.1519623   -4.4886153 
  993600    0.4566342   0.14829915   0.68358139      -5.1736   -4.4900186 
  993700   0.44997691   0.18792442   0.67361543   -5.1630138   -4.4893983 
  993800   0.44527028   0.21500644   0.66656962    -5.155318   -4.4887484 
  993900   0.45506387   0.14917475   0.68123061   -5.1704028   -4.4891722 
  994000   0.45684061   0.12482633   0.68389039   -5.1739455   -4.4900551 
  994100   0.45238393   0.15020873   0.67721874    -5.167233   -4.4900143 
  994200   0.46215169   0.10687794   0.69184108   -5.1810724   -4.4892314 
  994300   0.44419819   0.19180477    0.6649647   -5.1551867    -4.490222 
  994400   0.45038014   0.15087567   0.67421907   -5.1650188   -4.4907997 
  994500   0.45361148   0.14588124   0.67905639   -5.1694278   -4.4903714 
  994600   0.46442528    0.1319584   0.69524464   -5.1854572   -4.4902126 
  994700   0.45286682   0.21895571   0.67794162   -5.1681865   -4.4902449 
  994800   0.45379353   0.20799768   0.67932891   -5.1707485   -4.4914195 
  994900   0.44343516   0.25769496   0.66382243   -5.1558284    -4.492006 
  995000   0.45036428   0.21367879   0.67419532   -5.1661691   -4.4919738 
  995100   0.46001897   0.13819585    0.6886484    -5.180588   -4.4919396 
  995200   0.46218468   0.10206842   0.69189046   -5.1833734   -4.4914829 
  995300     0.454341   0.14634746   0.68014847    -5.171075   -4.4909266 
  995400    0.4583515     0.169846    0.6861522    -5.177565   -4.4914128 
  995500   0.44545474   0.32444935   0.66684575   -5.1586822   -4.4918365 
  995600   0.44196215   0.39088353   0.66161734   -5.1526898   -4.4910725 
  995700   0.45235946   0.32756279    0.6771821   -5.1676065   -4.4904244 
  995800   0.46573367   0.23417346    0.6972033   -5.1869666   -4.4897633 
  995900   0.44869034   0.33455954   0.67168944   -5.1619087   -4.4902193 
  996000   0.44856374   0.35737929   0.67149992   -5.1610667   -4.4895668 
  996100   0.44873101   0.35040046   0.67175032   -5.1612599   -4.4895096 
  996200   0.44244293   0.33359106   0.66233707   -5.1517808   -4.4894437 
  996300   0.46411418   0.12220928   0.69477892    -5.183603   -4.4888241 
  996400   0.45342411  0.067159764    0.6787759   -5.1673334   -4.4885575 
  996500    0.4543463  -0.03020606    0.6801564   -5.1680297   -4.4878733 
  996600   0.46035461  -0.10337639   0.68915085   -5.1757832   -4.4866324 
  996700   0.43489022  0.032418308   0.65103066   -5.1367427   -4.4857121 
  996800   0.43590829  0.066403107   0.65255471   -5.1376116   -4.4850569 
  996900   0.42289518    0.1378277   0.63307408   -5.1182609   -4.4851868 
  997000   0.42446618   0.10338242   0.63542587   -5.1215002   -4.4860743 
  997100   0.41131996   0.14164767   0.61574599   -5.1021771   -4.4864311 
  997200   0.43371019 -0.005047698   0.64926415   -5.1357629   -4.4864988 
  997300   0.42978327 -0.0086397401   0.64338556   -5.1287739   -4.4853883 
  997400   0.44224266 -0.083012941   0.66203726   -5.1472301   -4.4851929 
  997500   0.44182272 -0.070093588   0.66140862   -5.1466038   -4.4851952 
  997600    0.4322283  0.033680276   0.64704576   -5.1332449   -4.4861991 
  997700   0.43629818  0.070874152   0.65313838   -5.1402516   -4.4871133 
  997800    0.4330211   0.14989882   0.64823258   -5.1356781   -4.4874455 
  997900   0.43718883   0.18693286   0.65447168   -5.1435156    -4.489044 
  998000    0.4451899    0.1839052   0.66644928   -5.1550414   -4.4885922 
  998100   0.45557443   0.16173852   0.68199493   -5.1718277   -4.4898327 
  998200   0.43191477   0.29156904   0.64657641   -5.1353969   -4.4888204 
  998300   0.43214735   0.26668481   0.64692459   -5.1356791   -4.4887545 
  998400   0.44809298    0.1811901   0.67079519   -5.1594019   -4.4886067 
  998500   0.42721101   0.32798288   0.63953489   -5.1292218   -4.4896869 
  998600   0.42247783   0.37612389   0.63244932   -5.1214856   -4.4890363 
  998700   0.44538853   0.25762257   0.66674664   -5.1555668   -4.4888202 
  998800   0.46360169   0.14920691   0.69401173   -5.1826359   -4.4886242 
  998900   0.46922842   0.11054898   0.70243495   -5.1906339   -4.4881989 
  999000   0.43506542   0.28929234   0.65129294   -5.1404034   -4.4891104 
  999100   0.44583678   0.23140289   0.66741767   -5.1555191   -4.4881014 
  999200   0.44837503   0.21718334   0.67121742   -5.1587968   -4.4875794 
  999300   0.45771446   0.19697132   0.68519854   -5.1728484   -4.4876499 
  999400   0.46547679   0.18753067   0.69681875   -5.1843359   -4.4875172 
  999500   0.43395161   0.35690735   0.64962556   -5.1366537   -4.4870282 
  999600   0.43598465   0.28973159   0.65266902   -5.1397282   -4.4870592 
  999700   0.43894773   0.17064899   0.65710475   -5.1434112   -4.4863065 
  999800   0.44324899   0.07043091   0.66354373   -5.1501773   -4.4866336 
  999900   0.42884246   0.10217721   0.64197717   -5.1279457   -4.4859685 
 1000000   0.41536936   0.12677599   0.62180793   -5.1079068   -4.4860989 
 1000100   0.43901608 -0.014538404   0.65720707   -5.1428874   -4.4856803 
 1000200   0.42933483  0.018650075   0.64271424   -5.1275805   -4.4848662 
 1000300   0.45028345 -0.081723188   0.67407432   -5.1590057   -4.4849314 
 1000400   0.43304312  0.051673709   0.64826556    -5.133523   -4.4852575 
 1000500   0.44090142  0.063837782   0.66002943   -5.1456147   -4.4855853 
 1000600   0.44444909  0.082565539   0.66534029   -5.1512835   -4.4859432 
 1000700   0.43990374   0.10573206    0.6585359   -5.1457585   -4.4872226 
 1000800   0.45759038  0.027571684    0.6850128   -5.1729511   -4.4879383 
 1000900   0.46452798  0.031350279   0.69539839   -5.1838269   -4.4884285 
 1001000   0.45210317   0.13424425   0.67679845   -5.1664345    -4.489636 
Loop time of 77.4596 on 8 procs for 1000000 steps with 500 atoms

Performance: 557710.119 tau/day, 12909.956 timesteps/s
70.0% CPU use with 8 MPI tasks x no OpenMP threads

MPI task timing breakdown:
Section |  min time  |  avg time  |  max time  |%varavg| %total
---------------------------------------------------------------
Pair    | 26.821     | 37.028     | 43.613     |  94.4 | 47.80
Neigh   | 0.56549    | 0.75437    | 0.94807    |  15.9 |  0.97
Comm    | 23.017     | 30.813     | 43.337     | 128.3 | 39.78
Output  | 0.19929    | 0.27317    | 0.5646     |  21.4 |  0.35
Modify  | 1.7514     | 1.885      | 2.0403     |   7.1 |  2.43
Other   |            | 6.706      |            |       |  8.66

Nlocal:    62.5 ave 71 max 57 min
Histogram: 2 2 0 0 1 1 0 0 1 1
Nghost:    254.75 ave 263 max 248 min
Histogram: 1 0 2 0 2 1 0 0 1 1
Neighs:    1738.12 ave 2214 max 1258 min
Histogram: 2 1 0 0 0 2 0 0 1 2

Total # of neighbors = 13905
Ave neighs/atom = 27.81
Neighbor list builds = 8758
Dangerous builds = 0
Total wall time: 0:01:17
