LAMMPS (30 Jul 2016)
variable seed equal 1928427217 #1st random number by Rafi
variable avg_length equal 500000

units lj # This simulation uses Lennard-Jones reduced units (see notes)
boundary f f f # this isn't necessary, but we have reflective walls, so this
               # will tell us if those fail for some reason

# create box that can be filled with Type-1 atoms
lattice fcc 0.75 # reduced density is 0.75
Lattice spacing in x,y,z = 1.74716 1.74716 1.74716
region simbox block 0 5 0 5 0 5
create_box 1 simbox
Created orthogonal box = (0 0 0) to (8.7358 8.7358 8.7358)
  1 by 2 by 2 MPI processor grid

# How we calculate forces
pair_style lj/cut 2.5 # r_c = 2.5 sigma
pair_coeff 1 1 1.0 1.0 # specify sigma = 1 and epsilon = 1
mass 1 1 # mass, in LJ reduced units

# Do we want the Lennard-Jones potential shifted? Default: yes
#pair_modify shift no

# Fill simulation with type 1 atoms, on-lattice
create_atoms 1 box
Created 500 atoms
# give them random velocities consistent with kT/epsilon = 0.5
velocity all create 0.5 ${seed} # last number is a random number seed
velocity all create 0.5 1928427217 

# What thermodynamic information do we desire to collect?
thermo_style custom step temp press ke pe etotal
thermo 100 # print the above every 100 time steps

# set the time step; default is 0.005 tau
timestep 0.0005

# Apply reflective walls (to mimic the Monte Carlo simulation)
fix reflect all wall/reflect xlo EDGE xhi EDGE ylo EDGE yhi EDGE zlo EDGE zhi EDGE

# Run molecular dynamics in the isokinetic ensemble (constant
# kinetic energy) by rescaling the velocities every time step
# for 1000 time steps, to achieve a temperature consistent with
# kT/epsilon = 0.5
fix 2 all temp/rescale 1 0.5 0.5 0.0 1.0
fix 1 all nve # velocity Verlet time integration
run 1000
Neighbor list info ...
  1 neighbor list requests
  update every 1 steps, delay 10 steps, check yes
  max neighbors/atom: 2000, page size: 100000
  master list distance cutoff = 2.8
  ghost atom cutoff = 2.8
  binsize = 1.4 -> bins = 7 7 7
Memory usage per processor = 2.4841 Mbytes
Step Temp Press KinEng PotEng TotEng 
       0          0.5   -4.2606863       0.7485   -4.6432288   -3.8947288 
     100          0.5   -3.8737525       0.7485   -4.6991417   -3.9506417 
     200          0.5   -2.3670365       0.7485   -4.6208334   -3.8723334 
     300          0.5  -0.59030024       0.7485   -4.5104147   -3.7619147 
     400          0.5  -0.33525156       0.7485   -4.6798365   -3.9313365 
     500          0.5  -0.34936736       0.7485   -4.8273617   -4.0788617 
     600          0.5  -0.38229879       0.7485   -4.9457745   -4.1972745 
     700          0.5  -0.32280527       0.7485   -5.0348569   -4.2863569 
     800          0.5  -0.14834164       0.7485   -5.0935856   -4.3450856 
     900          0.5 -0.003246734       0.7485   -5.1523933   -4.4038933 
    1000          0.5 0.0081672749       0.7485   -5.2372869   -4.4887869 
Loop time of 0.0694606 on 4 procs for 1000 steps with 500 atoms

Performance: 621935.041 tau/day, 14396.644 timesteps/s
99.9% CPU use with 4 MPI tasks x no OpenMP threads

MPI task timing breakdown:
Section |  min time  |  avg time  |  max time  |%varavg| %total
---------------------------------------------------------------
Pair    | 0.023619   | 0.036729   | 0.056765   |   6.4 | 52.88
Neigh   | 0.00055671 | 0.00087273 | 0.0012763  |   0.9 |  1.26
Comm    | 0.0053442  | 0.026476   | 0.04056    |   8.0 | 38.12
Output  | 8.6784e-05 | 0.0001055  | 0.00014853 |   0.2 |  0.15
Modify  | 0.0028117  | 0.0036109  | 0.0045424  |   1.0 |  5.20
Other   |            | 0.001666   |            |       |  2.40

Nlocal:    125 ave 149 max 106 min
Histogram: 1 0 1 0 1 0 0 0 0 1
Nghost:    236.25 ave 256 max 214 min
Histogram: 1 0 0 0 1 0 1 0 0 1
Neighs:    3403.25 ave 5097 max 2069 min
Histogram: 1 0 0 1 1 0 0 0 0 1

Total # of neighbors = 13613
Ave neighs/atom = 27.226
Neighbor list builds = 8
Dangerous builds = 0
unfix 2

# Compute the radial distribution function
compute RDF all rdf 50 # 50 bins between 0 and the cutoff distance
# output the average of the RDF over the last 50000 steps every 50000 steps
fix RDF all ave/time 1 1 ${avg_length} c_RDF[2*3] file RDF_lj.txt mode vector
fix RDF all ave/time 1 1 500000 c_RDF[2*3] file RDF_lj.txt mode vector

run ${avg_length} # run the simulation
run 500000 
Neighbor list info ...
  2 neighbor list requests
  update every 1 steps, delay 10 steps, check yes
  max neighbors/atom: 2000, page size: 100000
  master list distance cutoff = 2.8
  ghost atom cutoff = 2.8
  binsize = 1.4 -> bins = 7 7 7
Memory usage per processor = 2.4841 Mbytes
Step Temp Press KinEng PotEng TotEng 
    1000          0.5 0.0081672749       0.7485   -5.2372869   -4.4887869 
    1100   0.54124014   0.14424869   0.81023648   -5.3037882   -4.4935517 
    1200   0.56676275   0.38019442   0.84844383   -5.3472171   -4.4987733 
    1300   0.57984622   0.65682476   0.86802979   -5.3741142   -4.5060844 
    1400   0.59250131   0.90744576   0.88697447   -5.3992922   -4.5123178 
    1500   0.60456654    1.1594931   0.90503612   -5.4222501    -4.517214 
    1600   0.59374971    1.5228671   0.88884331   -5.4105616   -4.5217183 
    1700   0.54862213    2.0128836   0.82128733   -5.3458758   -4.5245885 
    1800   0.58276751    2.0321316   0.87240297   -5.3995404   -4.5271374 
    1900   0.57677019    2.1348505   0.86342498   -5.3905599   -4.5271349 
    2000    0.5834421    2.0856215   0.87341283   -5.3995737   -4.5261609 
    2100   0.58438296     1.913668    0.8748213   -5.3990249   -4.5242036 
    2200   0.57581917    1.6265703    0.8620013   -5.3818643    -4.519863 
    2300   0.57096517    1.2087114   0.85473486    -5.372347   -4.5176121 
    2400   0.54482578   0.86570782   0.81560419   -5.3284152    -4.512811 
    2500    0.5284548   0.47505739   0.79109683   -5.2992399    -4.508143 
    2600   0.52287821   0.05592632   0.78274867   -5.2854716   -4.5027229 
    2700   0.50555814  -0.24818414   0.75682054   -5.2554312   -4.4986107 
    2800   0.47317524  -0.43311759   0.70834333   -5.2032026   -4.4948593 
    2900   0.45409941  -0.64484189   0.67978682   -5.1711191   -4.4913323 
    3000   0.42914637  -0.73483621   0.64243212   -5.1318066   -4.4893745 
    3100   0.40846326  -0.76728382    0.6114695   -5.0983652   -4.4868957 
    3200   0.40405628  -0.84127723   0.60487226   -5.0900386   -4.4851664 
    3300    0.3874982  -0.83066625   0.58008481   -5.0642393   -4.4841545 
    3400   0.39486663  -0.91547028   0.59111535   -5.0735338   -4.4824184 
    3500   0.38816365  -0.88429566   0.58108099   -5.0629446   -4.4818636 
    3600    0.3901185  -0.86172684   0.58400739   -5.0655097   -4.4815023 
    3700    0.3894302  -0.79027978   0.58297701   -5.0650659   -4.4820889 
    3800    0.3987151  -0.73941207   0.59687651   -5.0793908   -4.4825143 
    3900   0.41262572  -0.67380041   0.61770071    -5.101651   -4.4839503 
    4000    0.4134773  -0.52173612   0.61897552   -5.1041325    -4.485157 
    4100   0.42643778  -0.45703891   0.63837736   -5.1257855   -4.4874081 
    4200   0.46276918  -0.49992171   0.69276547   -5.1820026   -4.4892372 
    4300   0.45207112  -0.25608136   0.67675046   -5.1679783   -4.4912279 
    4400   0.44735603 -0.045593092   0.66969197   -5.1632682   -4.4935762 
    4500   0.49715921  -0.10696235   0.74424734   -5.2395558   -4.4953084 
    4600   0.45962178   0.30684688   0.68805381   -5.1869179   -4.4988641 
    4700   0.47618223   0.42096188   0.71284479   -5.2140273   -4.5011825 
    4800    0.4791146    0.5886953   0.71723456   -5.2201766   -4.5029421 
    4900   0.49461674   0.69071007   0.74044126   -5.2453422   -4.5049009 
    5000   0.51579572   0.73939474    0.7721462   -5.2777983   -4.5056521 
    5100   0.48970567    0.9908318   0.73308939   -5.2389689   -4.5058795 
    5200   0.51864871   0.90169932   0.77641712   -5.2839351    -4.507518 
    5300   0.51415636   0.88640937   0.76969207   -5.2783516   -4.5086595 
    5400   0.51446947   0.79103186    0.7701608   -5.2787218    -4.508561 
    5500   0.50460802   0.72764696    0.7553982   -5.2622619   -4.5068637 
    5600   0.49075382   0.67399887   0.73465846   -5.2400205    -4.505362 
    5700   0.49685851   0.48450469   0.74379719   -5.2477902    -4.503993 
    5800   0.48135898   0.40553806   0.72059439    -5.222599   -4.5020046 
    5900   0.46684172   0.30273981   0.69886205   -5.1983858   -4.4995237 
    6000   0.48950277 -0.018449938   0.73278565   -5.2307109   -4.4979252 
    6100   0.48084966  -0.15157049   0.71983194    -5.216811   -4.4969791 
    6200   0.44390967 -0.099297483   0.66453277   -5.1604017   -4.4958689 
    6300   0.44690579  -0.23071405   0.66901797   -5.1642635   -4.4952455 
    6400   0.42377058  -0.21088501   0.63438456   -5.1288799   -4.4944953 
    6500   0.43865289   -0.3629858   0.65666338   -5.1487446   -4.4920812 
    6600   0.43299916  -0.39433751   0.64819974   -5.1399534   -4.4917537 
    6700   0.43465169   -0.4469752   0.65067358   -5.1416812   -4.4910076 
    6800   0.42306415  -0.42544515   0.63332704   -5.1241387   -4.4908117 
    6900   0.40852997  -0.35830273   0.61156937    -5.102711   -4.4911416 
    7000   0.39936973  -0.26958881   0.59785648   -5.0894625   -4.4916061 
    7100   0.39493044  -0.18432067   0.59121087   -5.0832089    -4.491998 
    7200   0.42440234  -0.27318789    0.6353303   -5.1271663   -4.4918359 
    7300   0.42551022  -0.19875263   0.63698879   -5.1294445   -4.4924557 
    7400   0.43210043  -0.13240414   0.64685434   -5.1405829   -4.4937286 
    7500   0.45696854  -0.15379693   0.68408191    -5.177974   -4.4938921 
    7600   0.45944583 -0.040965141   0.68779041   -5.1821389   -4.4943485 
    7700   0.45617235  0.094037865   0.68289001   -5.1780551   -4.4951651 
    7800   0.44500991   0.21367006   0.66617984    -5.162226   -4.4960461 
    7900    0.4647976   0.13111699   0.69580201   -5.1922745   -4.4964725 
    8000   0.47316866   0.10941008   0.70833349   -5.2054263   -4.4970928 
    8100   0.45360632   0.25173138   0.67904866   -5.1766959   -4.4976472 
    8200    0.4708586   0.18793233   0.70487532   -5.2028823    -4.498007 
    8300   0.46111174    0.2413133   0.69028428    -5.189401   -4.4991167 
    8400   0.47658542   0.16834853   0.71344837   -5.2116204    -4.498172 
    8500    0.4673067   0.20870086   0.69955813   -5.1970467   -4.4974886 
    8600   0.47698165   0.15384896   0.71404154   -5.2114645   -4.4974229 
    8700   0.45775456   0.25000981   0.68525858   -5.1837576   -4.4984991 
    8800   0.46370687   0.20642569   0.69416918   -5.1928644   -4.4986952 
    8900   0.45983046   0.19244567   0.68836619   -5.1866248   -4.4982586 
    9000    0.4431065   0.27589962   0.66333043   -5.1624374    -4.499107 
    9100   0.43604891   0.31056981   0.65276522   -5.1505007   -4.4977355 
    9200   0.45699313   0.17796685   0.68411872   -5.1825081   -4.4983894 
    9300   0.44567782   0.21960882   0.66717969   -5.1647793   -4.4975996 
    9400   0.45692427   0.13157368   0.68401563    -5.180963   -4.4969473 
    9500   0.47050241  0.023223703    0.7043421   -5.2006462   -4.4963041 
    9600   0.45339491  0.086305289   0.67873219   -5.1740891    -4.495357 
    9700    0.4532459  0.046093873   0.67850911   -5.1739968   -4.4954877 
    9800   0.45152131 0.0092283001    0.6759274   -5.1704088   -4.4944814 
    9900   0.45619577 -0.053880116   0.68292507   -5.1770157   -4.4940907 
   10000   0.45738308  -0.10102389   0.68470247   -5.1791526   -4.4944502 
   10100   0.44537317  -0.10433372   0.66672363   -5.1611357   -4.4944121 
   10200   0.47230904  -0.30743286   0.70704663    -5.201168   -4.4941214 
   10300   0.47495677  -0.34178233   0.71101028   -5.2055562   -4.4945459 
   10400   0.44492673  -0.15011635   0.66605532   -5.1612507   -4.4951954 
   10500   0.45452939  -0.15971557    0.6804305   -5.1763769   -4.4959464 
   10600   0.48056482   -0.2303975   0.71940554     -5.21516   -4.4957544 
   10700   0.45477944  0.030415585   0.68080482   -5.1785164   -4.4977116 
   10800   0.45079199    0.1973406    0.6748356   -5.1725478   -4.4977122 
   10900   0.44657141   0.32507936    0.6685174   -5.1671762   -4.4986588 
   11000   0.45718536   0.34299212   0.68440649   -5.1838171   -4.4994106 
   11100   0.45135895   0.40553265   0.67568434   -5.1755767   -4.4998923 
   11200    0.4615784    0.3442243   0.69098286   -5.1912661   -4.5002832 
   11300    0.4863993   0.20199503   0.72813975   -5.2288152   -4.5006755 
   11400   0.48306386   0.21304614   0.72314659   -5.2233268   -4.5001802 
   11500   0.49108035   0.16611588   0.73514728   -5.2357197   -4.5005724 
   11600   0.48702857   0.15465181   0.72908177   -5.2292623   -4.5001805 
   11700   0.48853019   0.11825201   0.73132969   -5.2310196   -4.4996899 
   11800    0.4595456   0.27829159   0.68793976   -5.1878257   -4.4998859 
   11900   0.45297782   0.35271623    0.6781078   -5.1775243   -4.4994165 
   12000   0.46182041   0.33355832   0.69134515   -5.1908902    -4.499545 
   12100   0.45418433   0.36441182   0.67991394   -5.1790982   -4.4991842 
   12200   0.46809825   0.25678527   0.70074308    -5.199047    -4.498304 
   12300   0.46105657   0.22241942   0.69020168   -5.1887014   -4.4984997 
   12400   0.45658465   0.17026522   0.68350721   -5.1820358   -4.4985286 
   12500   0.45818738  0.088879488   0.68590651   -5.1838801   -4.4979736 
   12600   0.46765617 -0.010173927   0.70008128   -5.1974643    -4.497383 
   12700   0.45671406  0.019653674   0.68370095   -5.1808555   -4.4971546 
   12800   0.44824569  0.056622765    0.6710238   -5.1677226   -4.4966988 
   12900   0.45511323  0.012127083    0.6813045   -5.1780567   -4.4967522 
   13000   0.45397414 -0.0046394504   0.67959929   -5.1752452   -4.4956459 
   13100   0.45601295 -0.058554047   0.68265139   -5.1788195   -4.4961681 
   13200    0.4444923 -0.039317572   0.66540497   -5.1604276   -4.4950226 
   13300   0.44931152 -0.085866233   0.67261935   -5.1674121   -4.4947927 
   13400    0.4453985 -0.045841917   0.66676156   -5.1615606    -4.494799 
   13500   0.43940792  0.028801876   0.65779365   -5.1538646    -4.496071 
   13600   0.45562602 -0.019591556   0.68207215   -5.1785681    -4.496496 
   13700   0.44643247  0.085326665   0.66830941   -5.1659183   -4.4976089 
   13800   0.43024605   0.26145693   0.64407834   -5.1402179   -4.4961396 
   13900   0.43772344   0.27476558   0.65527199   -5.1516065   -4.4963345 
   14000   0.45530281   0.16320479   0.68158831   -5.1779878   -4.4963995 
   14100   0.45837063   0.10217353   0.68618083   -5.1822544   -4.4960735 
   14200   0.44655445   0.12406626   0.66849201   -5.1642715   -4.4957795 
   14300   0.44207161   0.10061213   0.66178121   -5.1580503   -4.4962691 
   14400   0.45939764 -0.038044613   0.68771827   -5.1841161   -4.4963978 
   14500   0.44913974  0.010906405   0.67236219   -5.1690525   -4.4966903 
   14600   0.45169555  0.018263484   0.67618824    -5.173662   -4.4974737 
   14700   0.45680468  0.022786046   0.68383661   -5.1810739   -4.4972373 
   14800   0.46039607  0.080929211   0.68921291   -5.1865588   -4.4973459 
   14900   0.46671476   0.14349016   0.69867199   -5.1969648   -4.4982928 
   15000     0.462205   0.25510862   0.69192088   -5.1908664   -4.4989455 
   15100   0.47830329     0.249905   0.71602003   -5.2161394   -4.5001193 
   15200   0.46281944    0.3895815    0.6928407   -5.1928627    -4.500022 
   15300   0.46531536   0.38489021   0.69657709   -5.1953915   -4.4988144 
   15400   0.46089558   0.34682995   0.68996068    -5.188904   -4.4989434 
   15500   0.45596293   0.31621201   0.68257651     -5.18057   -4.4979934 
   15600   0.44873667   0.31674333   0.67175879   -5.1705944   -4.4988356 
   15700   0.45007011   0.25104247   0.67375496   -5.1726208   -4.4988658 
   15800   0.47436439  0.041051731   0.71012349   -5.2075838   -4.4974603 
   15900   0.45620269  0.046979076   0.68293543   -5.1786273   -4.4956919 
   16000   0.45515524 -0.014805152    0.6813674   -5.1766678   -4.4953004 
   16100   0.45312784 -0.046829814   0.67833238    -5.173471   -4.4951386 
   16200   0.45860054  -0.04262935   0.68652502   -5.1805845   -4.4940595 
   16300   0.44022905   0.11206473   0.65902288   -5.1542251   -4.4952022 
   16400   0.44080934   0.12283428   0.65989158   -5.1549312   -4.4950396 
   16500   0.44425497  0.064743935   0.66504968   -5.1604489   -4.4953992 
   16600   0.46537429 -0.071139033   0.69666532   -5.1923342   -4.4956689 
   16700   0.45082436   0.02811208   0.67488406   -5.1713321    -4.496448 
   16800   0.45274445  0.074040885   0.67775844   -5.1736845   -4.4959261 
   16900   0.44687442    0.1674614     0.668971   -5.1648973   -4.4959263 
   17000   0.44798726   0.22710848   0.67063692   -5.1666267   -4.4959898 
   17100   0.44977013   0.29201804   0.67330588   -5.1689037   -4.4955978 
   17200   0.42652313   0.42944244   0.63850512   -5.1343404   -4.4958353 
   17300   0.44777068   0.25496486   0.67031271   -5.1665054   -4.4961927 
   17400   0.45084176   0.17693234   0.67491012    -5.171587   -4.4966769 
   17500   0.45398852   0.13533374   0.67962081   -5.1758358    -4.496215 
   17600   0.44777664   0.12186465   0.67032162   -5.1665038   -4.4961821 
   17700   0.43720597   0.12707406   0.65449734    -5.150777   -4.4962796 
   17800   0.44613051  0.034480477   0.66785737   -5.1634846   -4.4956273 
   17900   0.42952106  0.071895131   0.64299303   -5.1364378   -4.4934447 
   18000   0.44944028 -0.073997828   0.67281211   -5.1669105   -4.4940984 
   18100   0.44366923 -0.061242359   0.66417283   -5.1572595   -4.4930867 
   18200   0.43059859  -0.01980772   0.64460609   -5.1382798   -4.4936737 
   18300   0.43821466  -0.13344001   0.65600735   -5.1496811   -4.4936737 
   18400   0.44443441  -0.21439912   0.66531831    -5.158767   -4.4934487 
   18500   0.44130618   -0.1924774   0.66063536   -5.1546704    -4.494035 
   18600   0.44449327  -0.16350399   0.66540642   -5.1587574    -4.493351 
   18700   0.43005983 -0.047273029   0.64379956   -5.1378369   -4.4940374 
   18800   0.45286237  -0.13338149   0.67793497   -5.1722355   -4.4943006 
   18900   0.45064633 -0.073032769   0.67461756   -5.1693778   -4.4947603 
   19000   0.43310427   0.07914981   0.64835709   -5.1447126   -4.4963555 
   19100   0.46409427 -0.014589141   0.69474913   -5.1913748   -4.4966257 
   19200   0.45657619   0.13044116   0.68349455   -5.1814255    -4.497931 
   19300   0.45166354    0.2622811   0.67614032   -5.1739409   -4.4978006 
   19400   0.46317569   0.28671352   0.69337401   -5.1919582   -4.4985842 
   19500   0.45601763    0.3866283   0.68265839   -5.1818567   -4.4991984 
   19600   0.45604324   0.40296888   0.68269672   -5.1816965   -4.4989998 
   19700   0.44091409   0.47146634    0.6600484   -5.1603297   -4.5002813 
   19800   0.45371071   0.39160195   0.67920493   -5.1803696   -4.5011646 
   19900   0.46881589   0.28812207   0.70181739   -5.2025585   -4.5007411 
   20000   0.46052424   0.29907652   0.68940479   -5.1905996   -4.5011949 
   20100   0.47243009   0.19083245   0.70722784   -5.2076789    -4.500451 
   20200   0.47468488   0.14885729   0.71060327    -5.210792   -4.5001888 
   20300   0.46174926    0.2094727   0.69123865   -5.1900882   -4.4988496 
   20400   0.47236182    0.1560604   0.70712564   -5.2057458   -4.4986201 
   20500   0.47119036   0.15447909   0.70537197   -5.2034049   -4.4980329 
   20600   0.45915519   0.20322214   0.68735533   -5.1846046   -4.4972492 
   20700   0.45451444   0.18036199   0.68040812   -5.1766486   -4.4962405 
   20800   0.44395995   0.18978108   0.66460804    -5.161405    -4.496797 
   20900   0.44716351   0.12227474   0.66940377   -5.1652547    -4.495851 
   21000   0.45292271  0.023268937    0.6780253   -5.1741048   -4.4960795 
   21100   0.43625284    0.0532547    0.6530705   -5.1490545    -4.495984 
   21200   0.44332348 -0.030381714   0.66365526   -5.1590911   -4.4954358 
   21300   0.44774051  -0.12164882   0.67026755    -5.164722   -4.4944544 
   21400   0.44156373  -0.14340217   0.66102091   -5.1551815   -4.4941606 
   21500    0.4419674  -0.13950538   0.66162519   -5.1564676   -4.4948424 
   21600   0.43920233  -0.10934374   0.65748588   -5.1517736   -4.4942877 
   21700   0.43136958 -0.061617197   0.64576026   -5.1392644   -4.4935041 
   21800   0.44409933  -0.12045505    0.6648167   -5.1586483   -4.4938316 
   21900   0.42496607 0.0078094386    0.6361742   -5.1299937   -4.4938195 
   22000   0.44742297 -0.065072702   0.66979219    -5.165147   -4.4953548 
   22100   0.45900557 -0.037722179   0.68713133   -5.1828805   -4.4957491 
   22200   0.43458709   0.23720375   0.65057687   -5.1475655   -4.4969887 
   22300   0.45292658    0.2549036   0.67803109   -5.1772719   -4.4992408 
   22400   0.46662572   0.25257043    0.6985387   -5.1986926   -4.5001539 
   22500    0.4690025   0.30286532   0.70209675   -5.2018887   -4.4997919 
   22600   0.46813003   0.33621304   0.70079066    -5.199798   -4.4990074 
   22700   0.46416892    0.3257445   0.69486088   -5.1943275   -4.4994666 
   22800   0.45918798   0.32336613   0.68740441   -5.1866666   -4.4992622 
   22900   0.46560263   0.25783454   0.69700713   -5.1967588   -4.4997517 
   23000   0.47006025   0.20433408    0.7036802   -5.2027803   -4.4991001 
   23100   0.46950093   0.18277913   0.70284289   -5.2015791   -4.4987362 
   23200   0.46178949   0.19488181   0.69129887   -5.1903324   -4.4990335 
   23300   0.44961473   0.22981136   0.67307325   -5.1730228   -4.4999496 
   23400   0.43668732   0.27037182   0.65372091   -5.1535732   -4.4998523 
   23500   0.46124117  0.087779455   0.69047803    -5.190527    -4.500049 
   23600   0.46931653 -0.0056410169   0.70256685   -5.2022223   -4.4996555 
   23700   0.47095177 -0.017170256    0.7050148    -5.204085   -4.4990702 
   23800   0.45953909   0.06653945   0.68793001   -5.1871921   -4.4992621 
   23900   0.46061236   0.11826032    0.6895367   -5.1885053   -4.4989686 
   24000   0.44327828   0.23122531   0.66358759   -5.1620311   -4.4984435 
   24100   0.44281688   0.20203827   0.66289687   -5.1615773   -4.4986805 
   24200    0.4393683   0.16692622   0.65773435   -5.1554347   -4.4977004 
   24300   0.44783733  0.058616068   0.67041248   -5.1679488   -4.4975364 
   24400   0.45475677   0.01127349   0.68077088   -5.1773304   -4.4965595 
   24500    0.4599907   0.03512998   0.68860607    -5.184675   -4.4960689 
   24600   0.44390632   0.16092723   0.66452775   -5.1609879   -4.4964602 
   24700   0.44642762   0.15945602   0.66830214   -5.1638509   -4.4955488 
   24800   0.44431692    0.1548003   0.66514243   -5.1614732   -4.4963308 
   24900   0.45046948   0.11939893   0.67435282   -5.1701951   -4.4958423 
   25000   0.42103545   0.25365521   0.63029007   -5.1266203   -4.4963303 
   25100   0.43985172   0.14565621   0.65845802   -5.1553399   -4.4968819 
   25200   0.44908206  0.099770331   0.67227585   -5.1687026   -4.4964267 
   25300   0.42374378   0.22432518   0.63434443   -5.1297564    -4.495412 
   25400   0.45004294  0.066301611   0.67371429   -5.1684076   -4.4946933 
   25500   0.45246752  0.026365713   0.67734387   -5.1719066   -4.4945628 
   25600   0.44708724  0.023194752    0.6692896   -5.1645057   -4.4952161 
   25700   0.44410194 0.0014865241    0.6648206   -5.1607881   -4.4959675 
   25800   0.44697704 -0.043364232   0.66912463   -5.1643416    -4.495217 
   25900   0.45936755  -0.12944615   0.68767322   -5.1838082    -4.496135 
   26000    0.4588371  -0.12231893   0.68687913   -5.1836355   -4.4967564 
   26100   0.45171986 -0.062245907   0.67622463   -5.1725239   -4.4962993 
   26200   0.45762888 -0.077721007   0.68507043   -5.1809749   -4.4959045 
   26300   0.46163847 -0.059597348   0.69107278   -5.1874698    -4.496397 
   26400   0.43786633   0.13734931    0.6554859   -5.1518798   -4.4963939 
   26500   0.44517797   0.18925524   0.66643142   -5.1639956   -4.4975642 
   26600   0.45703063   0.16843577   0.68417485   -5.1825605   -4.4983857 
   26700   0.47495847  0.094372984   0.71101282   -5.2092931   -4.4982802 
   26800   0.46260379   0.18773936   0.69251787   -5.1910583   -4.4985404 
   26900    0.4337646   0.40816287   0.64934561   -5.1480819   -4.4987363 
   27000   0.44299048   0.40608143   0.66315675   -5.1618278    -4.498671 
   27100   0.45642916    0.3310307   0.68327446   -5.1820758   -4.4988013 
   27200   0.44793352   0.35049861   0.67055648   -5.1700104   -4.4994539 
   27300   0.45389243   0.27509093   0.67947696    -5.178279    -4.498802 
   27400   0.45592531   0.20553862    0.6825202   -5.1806037   -4.4980835 
   27500   0.45468413   0.15951436   0.68066214   -5.1784921     -4.49783 
   27600   0.45415367   0.13390109   0.67986805   -5.1777678   -4.4978998 
   27700   0.45411082   0.14191439    0.6798039   -5.1777787   -4.4979748 
   27800   0.45818602   0.14915929   0.68590447   -5.1839776   -4.4980732 
   27900   0.45514389   0.14842481   0.68135041   -5.1792607   -4.4979103 
   28000   0.42409419   0.21595142     0.634869   -5.1321903   -4.4973213 
   28100   0.43552007  0.057671937   0.65197354   -5.1489327   -4.4969591 
   28200    0.4504468  -0.11533588   0.67431886    -5.171147   -4.4968282 
   28300   0.45043439  -0.17488563   0.67430029   -5.1697583    -4.495458 
   28400   0.44694806  -0.20782895   0.66908125   -5.1640796   -4.4949983 
   28500   0.45401464  -0.27306716   0.67965992   -5.1752462   -4.4955863 
   28600   0.44265709  -0.20824978   0.66265767   -5.1587661   -4.4961084 
   28700   0.46681648  -0.30215045   0.69882427   -5.1945421   -4.4957179 
   28800   0.44966974  -0.15335463    0.6731556   -5.1692632   -4.4961076 
   28900   0.43252192  0.043214017   0.64748531   -5.1432969   -4.4958116 
   29000   0.46366418 -0.014015027   0.69410527   -5.1910298   -4.4969245 
   29100   0.46655828  0.055155689   0.69843775   -5.1963731   -4.4979353 
   29200   0.47434211   0.11567043   0.71009015    -5.208322   -4.4982319 
   29300   0.47407908   0.20168881   0.70969639   -5.2084503   -4.4987539 
   29400   0.46502714   0.28630345   0.69614562   -5.1952573   -4.4991116 
   29500   0.45133003    0.3560449   0.67564105   -5.1754354   -4.4997943 
   29600   0.46171323   0.30772221    0.6911847   -5.1928719   -4.5016872 
   29700   0.46647934   0.31289104   0.69831958   -5.2002347   -4.5019151 
   29800   0.46668802   0.33098954   0.69863197   -5.1998941   -4.5012621 
   29900   0.46718007   0.33166354   0.69936856   -5.2002066    -4.500838 
   30000   0.47154045   0.30122984   0.70589605   -5.2071241   -4.5012281 
   30100   0.46647439   0.31560501   0.69831216   -5.1990769   -4.5007647 
   30200   0.46766862   0.32571977   0.70009993   -5.2000442   -4.4999442 
   30300   0.47474953   0.28864638   0.71070005   -5.2095337   -4.4988336 
   30400   0.48959924   0.15704845   0.73293006   -5.2316661    -4.498736 
   30500   0.47699878   0.12979762   0.71406718   -5.2128016   -4.4987344 
   30600   0.46793705  0.091288771   0.70050177   -5.1984485   -4.4979467 
   30700   0.43724649   0.19443504     0.654558   -5.1511992   -4.4966412 
   30800   0.43725939   0.11911455   0.65457731   -5.1503042   -4.4957269 
   30900   0.44668182 -0.026999277   0.66868269   -5.1644474   -4.4957647 
   31000   0.45779439  -0.18031809   0.68531821   -5.1808551   -4.4955369 
   31100   0.45420348  -0.24757295    0.6799426   -5.1756106    -4.495668 
   31200    0.4526937  -0.27215873   0.67768247   -5.1735792   -4.4958967 
   31300   0.45351433   -0.2616246   0.67891095    -5.175203   -4.4962921 
   31400   0.44308208  -0.17029581   0.66329387   -5.1592572   -4.4959633 
   31500   0.44318463  -0.14375627   0.66344739   -5.1593127   -4.4958653 
   31600    0.4459531  -0.11573545    0.6675918       -5.163   -4.4954083 
   31700   0.43588524 -0.0059588617    0.6525202   -5.1479308   -4.4954106 
   31800   0.45162565 -0.041314338    0.6760836   -5.1715935   -4.4955099 
   31900   0.43799234   0.05337228   0.65567453   -5.1511837   -4.4955092 
   32000   0.46044906 -0.042151936   0.68929224    -5.185388   -4.4960957 
   32100   0.43229843   0.14257081   0.64715075   -5.1438313   -4.4966805 
   32200   0.43369922   0.17613939   0.64924773   -5.1458304   -4.4965827 
   32300    0.4740489 0.0097324198   0.70965121   -5.2062651   -4.4966139 
   32400    0.4728881  0.069391258   0.70791349   -5.2047189   -4.4968054 
   32500   0.45943128   0.15796652   0.68776863   -5.1851946    -4.497426 
   32600   0.43995849   0.24167998   0.65861785   -5.1556187   -4.4970009 
   32700   0.46584485  0.084563196   0.69736974   -5.1950581   -4.4976884 
   32800   0.47646223  0.026149322   0.71326396    -5.211998    -4.498734 
   32900    0.4498835   0.21257944    0.6734756   -5.1729544   -4.4994788 
   33000   0.46338828   0.18864037   0.69369226   -5.1929761   -4.4992839 
   33100   0.43537081   0.36892612   0.65175011    -5.152239   -4.5004889 
   33200   0.45472008   0.29328634   0.68071596   -5.1802273   -4.4995113 
   33300   0.46532274    0.2017692   0.69658815   -5.1954461   -4.4988579 
   33400    0.4676946    0.1323572   0.70013882   -5.1996827   -4.4995439 
   33500   0.45866023   0.12796749   0.68661437   -5.1858305   -4.4992161 
   33600   0.45553328  0.093844017   0.68193332   -5.1821928   -4.5002595 
   33700   0.46788497  0.010756735    0.7004238   -5.1998945   -4.4994707 
   33800   0.47995099  -0.04724427   0.71848664   -5.2177575   -4.4992708 
   33900   0.46853908   0.04255475     0.701403   -5.2010366   -4.4996336 
   34000   0.44383814   0.20758911    0.6644257    -5.163983   -4.4995573 
   34100   0.44049546   0.25405259    0.6594217   -5.1591639   -4.4997422 
   34200   0.45770241   0.17826257   0.68518051   -5.1850167   -4.4998362 
   34300   0.45774862   0.18405245   0.68524968   -5.1842388   -4.4989891 
   34400    0.4474029   0.21535278   0.66976213    -5.167773   -4.4980109 
   34500   0.45320107   0.13033956     0.678442   -5.1766148   -4.4981728 
   34600   0.44865295   0.10784133   0.67163346   -5.1707512   -4.4991178 
   34700   0.45497906  0.042112447   0.68110365   -5.1793048   -4.4982012 
   34800   0.46242651 -0.028354471   0.69225249     -5.18977   -4.4975175 
   34900   0.46178802 -0.053611625   0.69129667   -5.1891727    -4.497876 
   35000   0.45013459  0.017019029   0.67385148   -5.1716621   -4.4978106 
   35100   0.44429608  0.067549262   0.66511123   -5.1637645   -4.4986533 
   35200   0.43836229    0.1225669   0.65622835   -5.1546479   -4.4984195 
   35300   0.43291065   0.14602027   0.64806725   -5.1466162   -4.4985489 
   35400    0.4655527 -0.032500341   0.69693239   -5.1955809   -4.4986485 
   35500   0.44819699   0.11565443   0.67095089   -5.1694021   -4.4984512 
   35600   0.44302587   0.19988624   0.66320973   -5.1611112   -4.4979015 
   35700   0.48084504  0.037540806   0.71982502   -5.2185474   -4.4987224 
   35800   0.45543361   0.22506295   0.68178411   -5.1806377   -4.4988536 
   35900   0.45559209   0.28347051   0.68202136   -5.1808994    -4.498878 
   36000   0.47239046   0.21733623   0.70716852   -5.2057838   -4.4986153 
   36100   0.45572694   0.30549609   0.68222323   -5.1805113   -4.4982881 
   36200   0.45263184   0.28654394   0.67758986   -5.1772161   -4.4996263 
   36300   0.44796445   0.23734743   0.67060278   -5.1709733   -4.5003706 
   36400   0.47026957   0.03964147   0.70399354   -5.2047239   -4.5007303 
   36500   0.46823698 -0.005059051   0.70095075   -5.2014498    -4.500499 
   36600   0.44983421  0.071645634   0.67340181   -5.1731829   -4.4997811 
   36700   0.44122786  0.095557682   0.66051811   -5.1592554   -4.4987373 
   36800   0.45694985 0.0031092522   0.68405392   -5.1821711   -4.4981172 
   36900   0.44370683  0.095309713   0.66422913   -5.1622486   -4.4980195 
   37000   0.42219938    0.2200165   0.63203247   -5.1304763   -4.4984438 
   37100   0.42988648   0.16509304   0.64354006   -5.1418871    -4.498347 
   37200   0.44116569   0.10110328   0.66042503   -5.1593034   -4.4988784 
   37300   0.44056813   0.10460121    0.6595305   -5.1569731   -4.4974426 
   37400   0.45048371  0.045266405   0.67437411   -5.1718795   -4.4975054 
   37500   0.44385965  0.052926211    0.6644579    -5.161245   -4.4967871 
   37600   0.42958872   0.09386653   0.64309432   -5.1400135   -4.4969192 
   37700   0.41392656   0.14170314   0.61964805    -5.116406    -4.496758 
   37800    0.4257751  0.023255775   0.63738532   -5.1346655   -4.4972802 
   37900   0.44588799  -0.13366169   0.66749433   -5.1642863    -4.496792 
   38000   0.43506614 -0.082126303   0.65129401   -5.1479538   -4.4966598 
   38100   0.43232989 -0.039496758   0.64719785   -5.1433031   -4.4961053 
   38200   0.43560634 -0.019449274    0.6521027   -5.1477488   -4.4956461 
   38300   0.45533917  -0.09117259   0.68164274   -5.1766048    -4.494962 
   38400   0.44270994 0.0015627205   0.66273678   -5.1586471   -4.4959103 
   38500     0.435455  0.052909787   0.65187613    -5.149059   -4.4971828 
   38600   0.45048944 -0.054136056    0.6743827   -5.1710764   -4.4966937 
   38700    0.4450154 -0.035080454   0.66618806    -5.163406    -4.497218 
   38800    0.4381318  0.032451734   0.65588331   -5.1542138   -4.4983305 
   38900   0.43848036  0.089623287   0.65640511   -5.1549642   -4.4985591 
   39000    0.4406021   0.13564775   0.65958135   -5.1579446   -4.4983632 
   39100   0.44959419    0.1265453    0.6730425   -5.1700029   -4.4969604 
   39200   0.45491775   0.13737853   0.68101187    -5.178082   -4.4970701 
   39300   0.43882757   0.26480569   0.65692487   -5.1544149     -4.49749 
   39400     0.438975   0.27393423   0.65714557   -5.1543099   -4.4971643 
   39500   0.45153254   0.18093701   0.67594421   -5.1735653   -4.4976211 
   39600   0.44747346   0.16568077   0.66986777   -5.1678116   -4.4979438 
   39700   0.45517756   0.10234207    0.6814008   -5.1794431   -4.4980423 
   39800   0.46311324  0.059687636   0.69328052   -5.1905722   -4.4972917 
   39900   0.45066889   0.13989993   0.67465133   -5.1715446   -4.4968932 
   40000   0.42401161   0.28852157   0.63474537   -5.1329371   -4.4981917 
   40100   0.43079542   0.21871268   0.64490075   -5.1427981   -4.4978973 
   40200   0.44749353  0.093645469   0.66989781   -5.1677208    -4.497823 
   40300   0.44499387  0.096199425   0.66615583   -5.1636215   -4.4974656 
   40400   0.44981208  0.067077215   0.67336868   -5.1708333   -4.4974646 
   40500   0.44235615   0.11822267   0.66220715   -5.1596067   -4.4973996 
   40600   0.45447185  0.079155832   0.68034435   -5.1775158   -4.4971714 
   40700   0.44110687   0.16026882   0.66033698    -5.157734    -4.497397 
   40800   0.43450173   0.20875714   0.65044909   -5.1479451    -4.497496 
   40900   0.42542569   0.23113244   0.63686226   -5.1347163   -4.4978541 
   41000   0.43951438   0.12459499   0.65795303   -5.1546625   -4.4967094 
   41100   0.44375896  0.073862634   0.66430717   -5.1616324   -4.4973252 
   41200   0.47308792 -0.072108375   0.70821262   -5.2064498   -4.4982372 
   41300   0.44282427   0.11520303   0.66290793   -5.1605545   -4.4976465 
   41400   0.43715533   0.18654691   0.65442152   -5.1531112   -4.4986897 
   41500   0.42933473    0.2502823   0.64271409    -5.141828    -4.499114 
   41600   0.44447091   0.11707858   0.66537295   -5.1636064   -4.4982334 
   41700   0.45705429 -0.030975835   0.68421028   -5.1816271   -4.4974169 
   41800   0.47050156  -0.12108966   0.70434084    -5.201332   -4.4969911 
   41900    0.4447059  0.035635379   0.66572473   -5.1635632   -4.4978385 
   42000   0.42778598   0.16530408   0.64039561   -5.1381397   -4.4977441 
   42100   0.44063129   0.13339361   0.65962504   -5.1565886   -4.4969636 
   42200   0.44715511   0.12456516   0.66939121    -5.166321   -4.4969298 
   42300    0.4617013  0.094237097   0.69116684   -5.1887201   -4.4975532 
   42400   0.45679921   0.18304657   0.68382841   -5.1815872   -4.4977588 
   42500   0.44816389   0.25844641   0.67090134   -5.1685604   -4.4976591 
   42600   0.44658961   0.26656808   0.66854464   -5.1665705   -4.4980259 
   42700   0.45067864   0.20230197   0.67466593   -5.1720468   -4.4973809 
   42800   0.45281509   0.14179651   0.67786419   -5.1756038   -4.4977396 
   42900   0.43540467   0.19195359    0.6518008   -5.1499002   -4.4980994 
   43000    0.4347982   0.15297258    0.6508929   -5.1489942   -4.4981013 
   43100   0.42994342   0.13906274   0.64362531    -5.142543   -4.4989177 
   43200    0.4279089   0.13376929   0.64057963   -5.1386832   -4.4981036 
   43300   0.42333004   0.14325716   0.63372508   -5.1323443   -4.4986192 
   43400   0.45989693 -0.045006431    0.6884657   -5.1862343   -4.4977686 
   43500   0.44496065  0.081877932   0.66610609   -5.1637592   -4.4976531 
   43600   0.44693742   0.13838729   0.66906531   -5.1672413    -4.498176 
   43700   0.44558569   0.18783076   0.66704177   -5.1657383   -4.4986965 
   43800   0.45312896   0.17994423   0.67833406   -5.1782373   -4.4999033 
   43900   0.46865728   0.14928669   0.70157995    -5.202072    -4.500492 
   44000   0.45703612   0.27977023   0.68418307   -5.1850669   -4.5008838 
   44100   0.46253427   0.27857931    0.6924138    -5.192451   -4.5000372 
   44200   0.46992884   0.24095558   0.70348347   -5.2040145    -4.500531 
   44300   0.45670567   0.29930423   0.68368839    -5.183373   -4.4996846 
   44400   0.47045955   0.19143638   0.70427794   -5.2034422   -4.4991642 
   44500   0.46636983     0.161163   0.69815564   -5.1977438   -4.4995882 
   44600   0.44586314   0.21356995   0.66745712   -5.1667129   -4.4992557 
   44700   0.44669645   0.13820964   0.66870458   -5.1663621   -4.4976575 
   44800   0.45263929  0.036842107   0.67760102   -5.1751585   -4.4975574 
   44900   0.44142497  0.055320451   0.66081317    -5.158142   -4.4973288 
   45000   0.42718345   0.11216497   0.63949362   -5.1366072   -4.4971136 
   45100   0.46382405 -0.080876073    0.6943446   -5.1915194   -4.4971748 
   45200   0.44604583  0.014895708   0.66773061   -5.1653286    -4.497598 
   45300    0.4355783  0.080559846   0.65206072   -5.1502796   -4.4982188 
   45400   0.44319463  0.038188076   0.66346237    -5.162334   -4.4988717 
   45500   0.44184694  0.062722828   0.66144487   -5.1602835   -4.4988386 
   45600   0.43540556   0.13481278   0.65180213   -5.1495301    -4.497728 
   45700   0.42561319   0.19084224   0.63714294   -5.1348704   -4.4977275 
   45800   0.44750253   0.06842828   0.66991129   -5.1667602   -4.4968489 
   45900   0.43773119   0.12507416   0.65528359   -5.1522943   -4.4970107 
   46000   0.44232538   0.07470305   0.66216109   -5.1584857   -4.4963246 
   46100   0.44847846  0.016483446   0.67137225   -5.1668819   -4.4955097 
   46200   0.42161702   0.13367897   0.63116068   -5.1270298   -4.4958691 
   46300   0.44415517 -0.013230009   0.66490029   -5.1611119   -4.4962116 
   46400   0.45500347 -0.059105539    0.6811402   -5.1771532    -4.496013 
   46500   0.45428377 -0.0032274503    0.6800628   -5.1767245   -4.4966617 
   46600   0.45365383  0.062248555   0.67911978   -5.1761084   -4.4969886 
   46700   0.43167654   0.20371804   0.64621978   -5.1438943   -4.4976746 
   46800   0.45525256   0.10121543   0.68151308   -5.1800299   -4.4985168 
   46900   0.43846964   0.19883781   0.65638906   -5.1554637   -4.4990747 
   47000   0.44647933   0.16253075   0.66837956   -5.1672615    -4.498882 
   47100   0.44479987   0.17195466   0.66586541   -5.1651673   -4.4993019 
   47200   0.46542396  0.092258854   0.69673966   -5.1964982   -4.4997586 
   47300   0.46272879   0.14097721     0.692705   -5.1921048   -4.4993999 
   47400   0.44874337    0.2273996   0.67176882   -5.1707777   -4.4990089 
   47500   0.44902072   0.19688265   0.67218402   -5.1717382   -4.4995542 
   47600   0.47191992  0.032623543   0.70646412   -5.2062148   -4.4997506 
   47700   0.45507184  0.098683901   0.68124255   -5.1809876    -4.499745 
   47800   0.46265588  0.069911609   0.69259585   -5.1917871   -4.4991912 
   47900    0.4377358   0.21739486   0.65529049   -5.1547091   -4.4994186 
   48000   0.45291466   0.15311055   0.67801325   -5.1770023    -4.498989 
   48100   0.47101007  0.090314374   0.70510208    -5.203793    -4.498691 
   48200   0.45974859   0.19387003   0.68824365    -5.187782   -4.4995384 
   48300   0.44840792   0.29075399   0.67126666   -5.1703811   -4.4991144 
   48400    0.4529387   0.27158763   0.67804923   -5.1764461   -4.4983969 
   48500   0.45595563   0.23669904   0.68256558   -5.1808854   -4.4983198 
   48600   0.45486126   0.19598482    0.6809273   -5.1792501   -4.4983228 
   48700   0.45957248   0.12307394   0.68798001   -5.1858888   -4.4979088 
   48800   0.43535539   0.20151937   0.65172702   -5.1495999   -4.4978729 
   48900   0.44363749   0.11532413   0.66412533   -5.1619727   -4.4978474 
   49000   0.45365631  0.041049126    0.6791235   -5.1770036   -4.4978801 
   49100   0.42862441   0.16040631   0.64165074   -5.1388455   -4.4971948 
   49200   0.42541956   0.17644768   0.63685307   -5.1340182   -4.4971651 
   49300   0.43044257   0.14685249   0.64437253   -5.1418293   -4.4974568 
   49400   0.44878007  0.043887368   0.67182377   -5.1694106   -4.4975868 
   49500   0.45250277  0.017277215   0.67739665   -5.1742629   -4.4968663 
   49600   0.44947453  0.050211079   0.67286337   -5.1697946   -4.4969313 
   49700    0.4484455    0.1014178   0.67132292   -5.1688093   -4.4974864 
   49800   0.43428277   0.22636301    0.6501213   -5.1477054   -4.4975841 
   49900   0.44722304   0.19725851   0.66949289   -5.1674391   -4.4979462 
   50000   0.44201476    0.2554449   0.66169609   -5.1600072   -4.4983111 
   50100    0.4646476   0.16681642   0.69557746   -5.1941183   -4.4985408 
   50200   0.46572368   0.16279475   0.69718835   -5.1957288   -4.4985404 
   50300   0.44567273   0.25743166   0.66717208   -5.1643313   -4.4971592 
   50400   0.44294679   0.24185378   0.66309134   -5.1614519   -4.4983605 
   50500   0.44133576   0.23181798   0.66067963   -5.1588515   -4.4981718 
   50600   0.43414299    0.2306706   0.64991206   -5.1476921   -4.4977801 
   50700   0.44476042   0.11654454   0.66580635   -5.1640813    -4.498275 
   50800   0.43963842  0.063491075   0.65813871   -5.1566736   -4.4985349 
   50900   0.45549811 -0.087614646   0.68188067   -5.1795647    -4.497684 
   51000   0.46062313  -0.10693979   0.68955283   -5.1870407   -4.4974879 
   51100   0.44279077   0.03779886   0.66285779   -5.1593664   -4.4965086 
   51200   0.43680303   0.10852168   0.65389414   -5.1506965   -4.4968024 
   51300    0.4497616  0.050107774   0.67329312   -5.1696715   -4.4963784 
   51400   0.46103128 -0.027678787   0.69016383   -5.1859554   -4.4957916 
   51500   0.45317572 -0.014598304   0.67840406   -5.1747806   -4.4963765 
   51600    0.4465346  0.015570469    0.6684623   -5.1652632   -4.4968009 
   51700   0.42619491   0.11363188   0.63801378   -5.1337361   -4.4957224 
   51800   0.44840643  -0.01670156   0.67126443   -5.1667599   -4.4954955 
   51900   0.44067504 -0.014368471   0.65969053   -5.1544668   -4.4947762 
   52000   0.44152002 -0.077286167   0.66095548   -5.1566449   -4.4956894 
   52100   0.44563571  -0.14073391   0.66711666   -5.1638188   -4.4967022 
   52200   0.41066628  0.039775194   0.61476743   -5.1115989   -4.4968315 
   52300   0.44003795   -0.0855895   0.65873681   -5.1548503   -4.4961135 
   52400   0.43477694 -0.018382588   0.65086108   -5.1471357   -4.4962746 
   52500   0.44487237 -0.025140528   0.66597394   -5.1610428   -4.4950689 
   52600   0.43912125  0.027338683   0.65736451   -5.1532482   -4.4958836 
   52700   0.44627255  0.028567483   0.66807001   -5.1638023   -4.4957323 
   52800   0.44133533   0.08826019   0.66067899   -5.1563779   -4.4956989 
   52900    0.4420171   0.10334098    0.6616996   -5.1567466    -4.495047 
   53000   0.43692825   0.15520405   0.65408159   -5.1491007   -4.4950191 
   53100   0.43815056   0.18313667   0.65591139   -5.1516156   -4.4957042 
   53200   0.43854413   0.22476154   0.65650056   -5.1536417   -4.4971411 
   53300   0.43539125   0.24753887    0.6517807   -5.1496706   -4.4978899 
   53400   0.45760552   0.10309454   0.68503547   -5.1827632   -4.4977278 
   53500   0.44902549   0.14212052   0.67219116   -5.1694943   -4.4973031 
   53600   0.44117149   0.18767333   0.66043372    -5.158096   -4.4976623 
   53700   0.44648181   0.15441076   0.66838326   -5.1657864   -4.4974031 
   53800   0.43570143   0.18550505   0.65224504   -5.1494498   -4.4972048 
   53900   0.43836301   0.13719574   0.65622943   -5.1535683   -4.4973389 
   54000    0.4587018 -0.016276237   0.68667659   -5.1846366     -4.49796 
   54100   0.43330509  0.091740786   0.64865772    -5.145062   -4.4964042 
   54200   0.43487836  0.087981153    0.6510129   -5.1479397   -4.4969268 
   54300   0.43336425   0.07704437   0.64874628   -5.1459023   -4.4971561 
   54400   0.43763813  0.057779868   0.65514428   -5.1516384   -4.4964941 
   54500    0.4429386  0.049367285   0.66307909   -5.1599669   -4.4968878 
   54600   0.43524766   0.10647835   0.65156575   -5.1486207   -4.4970549 
   54700   0.43756488  0.079738433   0.65503462   -5.1531028   -4.4980682 
   54800   0.44628378 -0.00042684824   0.66808682   -5.1662217   -4.4981349 
   54900   0.42865025  0.062538476   0.64168943   -5.1396608   -4.4979714 
   55000   0.43125725  0.041791896   0.64559211   -5.1429773   -4.4973852 
   55100   0.42231938  0.097531605    0.6322121    -5.129364   -4.4971519 
   55200   0.44328893 -0.0037294595   0.66360353   -5.1617682   -4.4981646 
   55300   0.43819475  0.058558532   0.65597754   -5.1541179   -4.4981403 
   55400   0.43506824   0.12434129   0.65129715   -5.1493781    -4.498081 
   55500   0.43057552   0.14696617   0.64457156   -5.1427818   -4.4982102 
   55600   0.44908048  0.018129177   0.67227347   -5.1707784   -4.4985049 
   55700   0.44803048 0.0064216039   0.67070163   -5.1686518   -4.4979502 
   55800    0.4626055 -0.064872123   0.69252043   -5.1907975   -4.4982771 
   55900   0.46654544 -0.054917836   0.69841853   -5.1968601   -4.4984416 
   56000   0.43049192   0.17316092   0.64444641    -5.142823   -4.4983766 
   56100   0.44695184     0.128135   0.66908691   -5.1675617   -4.4984748 
   56200   0.43425726   0.22241143   0.65008312   -5.1492993   -4.4992162 
   56300   0.45429129   0.15319403   0.68007406   -5.1794861    -4.499412 
   56400   0.45910666   0.16481695   0.68728268   -5.1858451   -4.4985624 
   56500    0.4533091   0.22875052   0.67860373   -5.1772462   -4.4986425 
   56600   0.44148176   0.28850627   0.66089819   -5.1603233   -4.4994251 
   56700   0.44236857   0.26226015   0.66222575   -5.1611195   -4.4988938 
   56800   0.45584862   0.19222062   0.68240538   -5.1816266   -4.4992213 
   56900    0.4409035   0.25741563   0.66003255   -5.1588618   -4.4988293 
   57000   0.44815345   0.20906523   0.67088572   -5.1691901   -4.4983043 
   57100    0.4389895   0.22709947   0.65716729   -5.1547788   -4.4976115 
   57200   0.45307584    0.1223597   0.67825453   -5.1754425    -4.497188 
   57300   0.45961042  0.059020449    0.6880368   -5.1856088    -4.497572 
   57400   0.46788918 0.0080875445    0.7004301   -5.1977048   -4.4972747 
   57500   0.46604195 -0.003399673   0.69766479   -5.1957884   -4.4981236 
   57600   0.45891077 -0.0044681391   0.68698942   -5.1851802   -4.4981908 
   57700   0.46281858 -0.023517904   0.69283941   -5.1909282   -4.4980888 
   57800   0.42797169    0.1524575   0.64067362   -5.1379793   -4.4973057 
   57900   0.44061913  0.077164561   0.65960684   -5.1572077   -4.4976009 
   58000    0.4382695  0.076353981   0.65608944   -5.1543761   -4.4982866 
   58100   0.43852128  0.093382508   0.65646636   -5.1550032   -4.4985368 
   58200   0.42944482   0.17939945    0.6428789   -5.1422605   -4.4993816 
   58300   0.45352331  0.068251011    0.6789244   -5.1784707   -4.4995463 
   58400   0.45092979  0.074599585   0.67504189   -5.1733181   -4.4982762 
   58500     0.449859   0.07026396   0.67343892   -5.1723649    -4.498926 
   58600   0.43533255   0.13781399   0.65169283   -5.1502213   -4.4985285 
   58700   0.44723995   0.11303165    0.6695182    -5.168157   -4.4986388 
   58800   0.43421215   0.26126854   0.65001558   -5.1476747   -4.4976591 
   58900   0.44708385   0.27138737   0.66928452   -5.1666177   -4.4973332 
   59000   0.45346722   0.26547903   0.67884043   -5.1760766   -4.4972361 
   59100   0.44287937   0.29960399   0.66299042   -5.1606824    -4.497692 
   59200   0.44899605   0.20352733   0.67214709   -5.1699377   -4.4977906 
   59300   0.44905664   0.14827628   0.67223779   -5.1702232   -4.4979854 
   59400   0.43037827   0.18703072   0.64427627   -5.1416402    -4.497364 
   59500   0.46233816 -0.053238217   0.69212023   -5.1901086   -4.4979884 
   59600   0.48013152  -0.21801651   0.71875689   -5.2165156   -4.4977587 
   59700   0.46934778  -0.16013224   0.70261363     -5.19995   -4.4973363 
   59800   0.44956317 -0.0031816424   0.67299607   -5.1693553   -4.4963593 
   59900   0.45225483  0.031078827   0.67702549   -5.1730586   -4.4960331 
   60000   0.46303071 0.0024665199   0.69315697   -5.1891913   -4.4960343 
   60100   0.44594892   0.10610265   0.66758553   -5.1636837   -4.4960982 
   60200   0.44063734   0.13342219   0.65963409   -5.1567776   -4.4971435 
   60300   0.43489512   0.13604567   0.65103799   -5.1476245   -4.4965866 
   60400   0.44217142  0.075995301   0.66193062   -5.1581591   -4.4962285 
   60500    0.4365725  0.074792576   0.65354904   -5.1500053   -4.4964562 
   60600    0.4553172 -0.046146461   0.68160986   -5.1790097   -4.4973998 
   60700   0.44443825 0.0058019427   0.66532407   -5.1633109   -4.4979868 
   60800   0.44806685 0.0018868406   0.67075608   -5.1684141    -4.497658 
   60900   0.45599693   0.01060364    0.6826274    -5.180971   -4.4983436 
   61000   0.44394999   0.17291685   0.66459313   -5.1637191    -4.499126 
   61100    0.4483815   0.22250242    0.6712271   -5.1705278   -4.4993007 
   61200   0.47223405    0.1422578   0.70693438   -5.2068237   -4.4998894 
   61300   0.45895749   0.22672678   0.68705936   -5.1869201   -4.4998607 
   61400   0.46252706   0.25163711     0.692403   -5.1927194   -4.5003164 
   61500   0.44916395   0.36128995   0.67239843     -5.17228   -4.4998816 
   61600   0.45756854   0.33579145   0.68498011   -5.1839487   -4.4989685 
   61700   0.45653047    0.3337875   0.68342611   -5.1819382   -4.4985121 
   61800   0.46621888   0.25526219   0.69792967   -5.1964424   -4.4985127 
   61900   0.45008618   0.28495021   0.67377901   -5.1720692   -4.4982902 
   62000   0.45163124   0.21049036   0.67609197   -5.1739269    -4.497835 
   62100   0.45526619   0.10516705   0.68153348   -5.1783179   -4.4967844 
   62200   0.45396935 0.0064234106   0.67959212   -5.1750364   -4.4954443 
   62300   0.45037135 -0.075559373   0.67420591   -5.1692263   -4.4950204 
   62400   0.43387017 -0.051593405   0.64950365   -5.1439994   -4.4944957 
   62500   0.42676006 -0.079281163   0.63885981   -5.1330636   -4.4942038 
   62600    0.4260574  -0.13629632   0.63780793   -5.1317933   -4.4939854 
   62700   0.43234846  -0.20785842   0.64722565   -5.1414079   -4.4941822 
   62800   0.44593354  -0.26450527   0.66756251   -5.1610268   -4.4934643 
   62900   0.44657028  -0.21182764   0.66851571   -5.1623718   -4.4938561 
   63000   0.42263418 -0.026898625   0.63268337   -5.1267044    -4.494021 
   63100   0.44435814 -0.089477509   0.66520413   -5.1598071    -4.494603 
   63200   0.45444842 -0.076742826   0.68030929   -5.1754011   -4.4950919 
   63300   0.46041271 -0.024523629   0.68923783   -5.1851777   -4.4959399 
   63400   0.45226416    0.0905186   0.67703945    -5.173502   -4.4964625 
   63500     0.453431   0.12116689    0.6787862   -5.1763591   -4.4975729 
   63600   0.43888362   0.24037874   0.65700878   -5.1553653   -4.4983565 
   63700   0.44808195   0.23231854   0.67077868   -5.1694596   -4.4986809 
   63800   0.46219803   0.17275091   0.69191045   -5.1906581   -4.4987477 
   63900    0.4604772   0.22432625   0.68933437   -5.1893876   -4.5000532 
   64000   0.42704861   0.43225663   0.63929177   -5.1402273   -4.5009355 
   64100   0.45504054   0.30786673   0.68119569   -5.1807973   -4.4996016 
   64200    0.4615817   0.30889023    0.6909878   -5.1896718    -4.498684 
   64300    0.4579445    0.3429706   0.68554292   -5.1841935   -4.4986506 
   64400   0.46033013    0.3373048   0.68911421   -5.1880255   -4.4989113 
   64500   0.46184993   0.33074764   0.69138935   -5.1902675   -4.4988781 
   64600    0.4603716   0.32993557   0.68917629   -5.1874025   -4.4982262 
   64700   0.45499368   0.30728653   0.68112554   -5.1790572   -4.4979316 
   64800   0.45639871   0.23473357   0.68322887   -5.1800884   -4.4968596 
   64900   0.45366858   0.16950528   0.67914187   -5.1765564   -4.4974145 
   65000   0.44237155    0.1363276   0.66223022   -5.1593923   -4.4971621 
   65100   0.45902645 -0.0095864699   0.68716259   -5.1839336    -4.496771 
   65200   0.44805941  0.025552135   0.67074494    -5.167219   -4.4964741 
   65300    0.4544292  0.010035414   0.68028052   -5.1756032   -4.4953226 
   65400   0.44643706  0.054902439   0.66831629   -5.1637677   -4.4954515 
   65500   0.45040295  0.043333013   0.67425322   -5.1704443   -4.4961911 
   65600   0.45058595  0.064149139   0.67452716   -5.1706513   -4.4961242 
   65700   0.41895236   0.25094997   0.62717168   -5.1235542   -4.4963825 
   65800   0.43618076   0.16707656    0.6529626   -5.1486561   -4.4956935 
   65900   0.43061159   0.16556298   0.64462556   -5.1408996    -4.496274 
   66000   0.44965068  0.063308324   0.67312707   -5.1698319   -4.4967048 
   66100   0.46249859  0.025321911    0.6923604    -5.189162   -4.4968016 
   66200   0.45031626   0.14746783   0.67412345   -5.1708581   -4.4967346 
   66300   0.44567786   0.20660972   0.66717976   -5.1641427   -4.4969629 
   66400   0.46483035  0.086892653   0.69585103   -5.1930759   -4.4972248 
   66500    0.4735544  0.025675885   0.70891094   -5.2060212   -4.4971102 
   66600   0.43848089   0.22388859    0.6564059   -5.1535475   -4.4971416 
   66700   0.45326237    0.1775201   0.67853378   -5.1755407   -4.4970069 
   66800   0.43753461   0.27184777   0.65498931   -5.1525541   -4.4975648 
   66900   0.43210604   0.30971614   0.64686275    -5.144953   -4.4980903 
   67000   0.44269288   0.24450993   0.66271124   -5.1610957   -4.4983844 
   67100    0.4513856   0.18703776   0.67572425    -5.175023   -4.4992988 
   67200   0.44610472    0.2273091   0.66781877   -5.1670853   -4.4992665 
   67300   0.46049528   0.16167768   0.68936143   -5.1882035   -4.4988421 
   67400   0.46083853   0.21298598   0.68987528   -5.1886191   -4.4987438 
   67500   0.44582539   0.33454707   0.66740061   -5.1663731   -4.4989725 
   67600   0.46157314   0.26229669   0.69097499   -5.1900067   -4.4990317 
   67700    0.4473447   0.32624723   0.66967501    -5.168768    -4.499093 
   67800   0.45982276   0.25280067   0.68835467   -5.1871823   -4.4988276 
   67900   0.45243076   0.26301814   0.67728884   -5.1763768    -4.499088 
   68000   0.44258662   0.28502314   0.66255217   -5.1614416   -4.4988894 
   68100   0.45132176   0.20363071   0.67562868   -5.1740597    -4.498431 
   68200   0.45832741   0.14462359   0.68611613   -5.1842143   -4.4980982 
   68300   0.45255313   0.14801627   0.67747203   -5.1755347   -4.4980627 
   68400   0.44203975   0.17956272   0.66173351   -5.1591123   -4.4973788 
   68500   0.43779451   0.16759286   0.65537838   -5.1527224    -4.497344 
   68600   0.44548775  0.080552966   0.66689517   -5.1635874   -4.4966923 
   68700   0.44897706  0.013252026   0.67211866   -5.1694655   -4.4973468 
   68800   0.43637348  0.033988766    0.6532511    -5.149814   -4.4965629 
   68900   0.45521194  -0.10103562   0.68145227   -5.1774314   -4.4959792 
   69000   0.44618335 -0.088452047   0.66793648   -5.1628383   -4.4949018 
   69100   0.42498194   -0.0116478   0.63619797    -5.130716    -4.494518 
   69200   0.43213771 -0.079279572   0.64691015   -5.1409391    -4.494029 
   69300   0.43857462  -0.12235322   0.65654621   -5.1514885   -4.4949423 
   69400   0.43356217 -0.062755951   0.64904258   -5.1449033   -4.4958608 
   69500   0.44132179 -0.051553158   0.66065872   -5.1569754   -4.4963167 
   69600   0.43984712 -0.014809763   0.65845114   -5.1551271   -4.4966759 
   69700   0.44543093 -0.049449878    0.6668101   -5.1640083   -4.4971982 
   69800   0.44719607 -0.054913266   0.66945252   -5.1672394   -4.4977868 
   69900   0.45529052 -0.062108308   0.68156991   -5.1799733   -4.4984034 
   70000   0.45621328 0.0064911886   0.68295128   -5.1810587   -4.4981074 
   70100   0.46128283  0.099267932    0.6905404   -5.1890459   -4.4985055 
   70200   0.44672941   0.27561052   0.66875392   -5.1674555   -4.4987015 
   70300   0.45114336   0.29318271   0.67536161   -5.1737699   -4.4984083 
   70400   0.45987862    0.2640361    0.6884383   -5.1866505   -4.4982122 
   70500   0.46878839   0.23221981   0.70177622   -5.1998841   -4.4981078 
   70600   0.48138388   0.16824979   0.72063167   -5.2194243   -4.4987926 
   70700   0.48022951   0.16157666   0.71890357   -5.2175989   -4.4986953 
   70800   0.44751909   0.28254026   0.66993608   -5.1692489   -4.4993128 
   70900    0.4606599   0.15937045   0.68960788   -5.1887243   -4.4991165 
   71000    0.4513496   0.16810273   0.67567035   -5.1745235   -4.4988532 
   71100   0.44965168     0.147534   0.67312856   -5.1723724   -4.4992438 
   71200   0.45708109  0.078954184   0.68425039   -5.1838014    -4.499551 
   71300   0.46011152  0.046506526   0.68878695    -5.188568    -4.499781 
   71400   0.45101657   0.12570413   0.67517181   -5.1744582   -4.4992864 
   71500   0.43694299   0.24398767   0.65410365    -5.153129   -4.4990253 
   71600   0.43213823   0.27805727   0.64691094   -5.1458996   -4.4989886 
   71700   0.43749396   0.22724561   0.65492846   -5.1535678   -4.4986393 
   71800   0.43409446   0.20006634   0.64983941   -5.1486747   -4.4988353 
   71900   0.42177807   0.24626872   0.63140177   -5.1299949   -4.4985931 
   72000   0.42729129   0.21218606   0.63965506   -5.1383463   -4.4986912 
   72100   0.43184524   0.14941184   0.64647232   -5.1451301   -4.4986578 
   72200   0.44880895  0.036666145     0.671867   -5.1707222   -4.4988552 
   72300   0.44592397  0.053868078   0.66754819   -5.1666597   -4.4991115 
   72400   0.45447447  0.035089316   0.68034829   -5.1787109   -4.4983626 
   72500   0.45454709  0.040922953     0.680457   -5.1782968   -4.4978398 
   72600   0.45994816 -0.0018821223   0.68854239   -5.1862516   -4.4977092 
   72700   0.44874976   0.03721008   0.67177839    -5.169678   -4.4978996 
   72800   0.43766886   0.10856138   0.65519029   -5.1526309   -4.4974406 
   72900   0.43090732   0.15502408   0.64506825   -5.1438762    -4.498808 
   73000   0.46354657  0.010384511   0.69392922   -5.1927727   -4.4988435 
   73100    0.4293102   0.23731605   0.64267737   -5.1406698   -4.4979924 
   73200   0.44635942   0.17923068   0.66820006   -5.1669442   -4.4987441 
   73300   0.45511146    0.1455919   0.68130185   -5.1803333   -4.4990315 
   73400   0.44492739   0.20854318   0.66605631   -5.1651508   -4.4990945 
   73500   0.43353948   0.27232679   0.64900861    -5.148171   -4.4991624 
   73600   0.44707204   0.19846932   0.66926684   -5.1680395   -4.4987727 
   73700   0.46248654   0.10972067   0.69234235   -5.1903986   -4.4980563 
   73800   0.45175174   0.15641986   0.67627235    -5.174656   -4.4983836 
   73900   0.42850224   0.26259706   0.64146785   -5.1394355   -4.4979676 
   74000   0.44482241    0.1289313   0.66589915   -5.1638361    -4.497937 
   74100   0.44104972    0.1214796   0.66025143   -5.1572084    -4.496957 
   74200   0.45908542  0.011950733   0.68725088   -5.1847335   -4.4974826 
   74300   0.45051372  0.064658756   0.67441904   -5.1717058   -4.4972867 
   74400   0.46196884  0.054156413   0.69156736   -5.1892943   -4.4977269 
   74500   0.44702574   0.20479699   0.66919753   -5.1683615    -4.499164 
   74600   0.44006758   0.29727542   0.65878117   -5.1577141    -4.498933 
   74700   0.46272536   0.20657439   0.69269987   -5.1922862   -4.4995864 
   74800   0.46598455   0.18195959   0.69757887   -5.1970675   -4.4994886 
   74900   0.45120274   0.21782374   0.67545051   -5.1748079   -4.4993574 
   75000   0.43876227   0.21004061   0.65682711   -5.1550129   -4.4981858 
   75100   0.45182573  0.049101926   0.67638312   -5.1743072   -4.4979241 
   75200   0.45262893 -0.011525463   0.67758551   -5.1748893   -4.4973038 
   75300   0.46472755 -0.071519223   0.69569715   -5.1924465   -4.4967493 
   75400   0.43073031   0.12594347   0.64480327    -5.140897   -4.4960938 
   75500    0.4452941  0.056678386   0.66660527    -5.161884   -4.4952787 
   75600   0.44974767  0.025076721   0.67327227    -5.168518   -4.4952458 
   75700   0.42799323   0.12525585   0.64070586   -5.1375161   -4.4968102 
   75800   0.43612361  0.040681394   0.65287704    -5.149947   -4.4970699 
   75900   0.44128322 -0.030574083   0.66060097   -5.1570171   -4.4964161 
   76000   0.44305125 -0.089481408   0.66324772   -5.1590119   -4.4957642 
   76100   0.44467572  -0.10755813   0.66567956   -5.1622277   -4.4965481 
   76200   0.43713606 -0.0089693878   0.65439268   -5.1510427     -4.49665 
   76300   0.42317147   0.13088186   0.63348769    -5.129352   -4.4958643 
   76400   0.44483396  0.073512748   0.66591644   -5.1627343   -4.4968178 
   76500   0.43467557   0.19992659   0.65070932   -5.1478218   -4.4971124 
   76600   0.43765124   0.27571396    0.6551639   -5.1538751   -4.4987112 
   76700   0.44385273   0.30815065   0.66444754   -5.1632547   -4.4988071 
   76800   0.44056681   0.35859962   0.65952852   -5.1583455    -4.498817 
   76900   0.44324554   0.34091839   0.66353857   -5.1623568   -4.4988182 
   77000   0.45939487   0.23167392   0.68771413   -5.1873517   -4.4996376 
   77100   0.44637009   0.31582884   0.66821602   -5.1673324   -4.4991164 
   77200   0.43961627   0.40029914   0.65810556   -5.1579394   -4.4998339 
   77300    0.4483647   0.40717326   0.67120195   -5.1726415   -4.5014396 
   77400   0.44060173     0.485234   0.65958079   -5.1603581   -4.5007774 
   77500   0.44333726   0.46092721   0.66367588   -5.1643002   -4.5006243 
   77600   0.46514224   0.31131181   0.69631794   -5.1963542   -4.5000363 
   77700   0.44933295   0.33686902   0.67265143    -5.171709   -4.4990576 
   77800   0.44158173   0.27535641   0.66104785   -5.1590515   -4.4980036 
   77900   0.45910035  0.066863341   0.68727322   -5.1846574   -4.4973842 
   78000   0.44021298  0.053782692   0.65899883   -5.1563079   -4.4973091 
   78100    0.4452923 -0.029502999   0.66660258   -5.1642405    -4.497638 
   78200   0.44652045  -0.05571432   0.66844111   -5.1643916   -4.4959505 
   78300   0.44655963 -0.086531631   0.66849976   -5.1648782   -4.4963785 
   78400   0.43945067   -0.0852935   0.65785765    -5.152931   -4.4950733 
   78500   0.42771486 -0.069288256   0.64028915   -5.1343805   -4.4940914 
   78600   0.45047164   -0.2330087   0.67435604   -5.1682108   -4.4938548 
   78700   0.41972517 -0.067988786   0.62832858   -5.1223175   -4.4939889 
   78800   0.42332727 -0.042964628   0.63372092   -5.1286286   -4.4949077 
   78900   0.44005249  -0.11446439   0.65875857   -5.1540904   -4.4953318 
   79000   0.43395483 -0.067338415   0.64963037   -5.1449493   -4.4953189 
   79100   0.44626019  -0.10045685    0.6680515   -5.1645178   -4.4964663 
   79200   0.43832659 -0.018810365    0.6561749   -5.1540119    -4.497837 
   79300     0.438308  0.032870298   0.65614708   -5.1539855   -4.4978385 
   79400   0.44352354  0.088104049   0.66395473   -5.1630956   -4.4991408 
   79500   0.45377741   0.14799941   0.67930479   -5.1798161   -4.5005113 
   79600   0.43021767   0.38760214   0.64403585   -5.1467976   -4.5027618 
   79700   0.44817336   0.39348516   0.67091552   -5.1741617   -4.5032462 
   79800   0.48101253   0.28748684   0.72007575   -5.2232883   -4.5032126 
   79900   0.46394688   0.44553967   0.69452848   -5.1976471   -4.5031186 
   80000   0.46221378   0.49775668   0.69193404    -5.195837   -4.5039029 
   80100   0.45880394   0.51779234    0.6868295   -5.1894835    -4.502654 
   80200   0.48592797   0.37153771   0.72743417   -5.2302891   -4.5028549 
   80300   0.47744243   0.39839005   0.71473132   -5.2167067   -4.5019753 
   80400   0.44917201    0.5235843    0.6724105   -5.1738265   -4.5014161 
   80500   0.45568394   0.42413481   0.68215886   -5.1834466   -4.5012878 
   80600   0.47375671   0.26380653   0.70921379    -5.209655   -4.5004412 
   80700   0.45088452   0.29854356   0.67497412   -5.1753495   -4.5003754 
   80800   0.45093199   0.17089785    0.6750452   -5.1747967   -4.4997515 
   80900   0.45508054   0.04632803   0.68125558   -5.1798362   -4.4985806 
   81000    0.4555845 -0.014926446      0.68201   -5.1794149   -4.4974049 
   81100   0.42886003  0.089051364   0.64200346    -5.139379   -4.4973755 
   81200   0.43065036  0.058456747   0.64468358   -5.1417567   -4.4970732 
   81300   0.43009238  0.038776486    0.6438483   -5.1407553    -4.496907 
   81400    0.4431806  -0.05346996   0.66344135   -5.1593725   -4.4959312 
   81500   0.44287131   -0.0802749   0.66297835   -5.1591804   -4.4962021 
   81600   0.43566742 -0.030003858   0.65219413   -5.1487816   -4.4965875 
   81700   0.45414577  -0.08636619   0.67985621   -5.1765391   -4.4966828 
   81800   0.43528755  0.036867197   0.65162547   -5.1482746   -4.4966491 
   81900   0.43393499  0.074773622   0.64960068    -5.147328   -4.4977274 
   82000   0.41996758   0.19295337   0.62869147   -5.1263247   -4.4976332 
   82100   0.44424609   0.11024971   0.66503639   -5.1635218   -4.4984854 
   82200   0.45799778  0.093284628   0.68562268   -5.1848924   -4.4992697 
   82300   0.45614674   0.16963291   0.68285167   -5.1836502   -4.5007986 
   82400   0.44814549   0.27052451    0.6708738   -5.1726064   -4.5017326 
   82500   0.45510396   0.26704281   0.68129063   -5.1841653   -4.5028747 
   82600   0.45592115   0.32685093   0.68251396   -5.1855523   -4.5030384 
   82700    0.4399594   0.44829135   0.65861923   -5.1623062    -4.503687 
   82800   0.48107861   0.21625572   0.72017468   -5.2237653   -4.5035906 
   82900   0.48041275   0.19194943   0.71917789   -5.2218866   -4.5027088 
   83000   0.46915344   0.22432778    0.7023227   -5.2050316   -4.5027089 
   83100   0.45974852    0.2672002   0.68824354   -5.1906274   -4.5023838 
   83200   0.46012193   0.27185575   0.68880252   -5.1916472   -4.5028447 
   83300   0.43935083   0.40939261   0.65770819   -5.1605143   -4.5028062 
   83400    0.4799474   0.25996697   0.71848125   -5.2207996   -4.5023183 
   83500   0.47366426   0.35040866   0.70907539   -5.2112954     -4.50222 
   83600   0.45078905   0.49611598   0.67483121   -5.1767568   -4.5019256 
   83700   0.45536335   0.43119444   0.68167893   -5.1830455   -4.5013666 
   83800   0.46431808   0.27917586   0.69508416   -5.1958308   -4.5007466 
   83900    0.4442774   0.26310269   0.66508327   -5.1656333   -4.5005501 
   84000   0.43552296   0.21741219   0.65197788   -5.1511543   -4.4991764 
   84100   0.45211167  0.020495337   0.67681117   -5.1759105   -4.4990994 
   84200   0.45519529 -0.083617008   0.68142735   -5.1794447   -4.4980173 
   84300   0.43728407 -0.042735904   0.65461425   -5.1519752    -4.497361 
   84400   0.44145946  -0.10636505    0.6608648   -5.1590775   -4.4982127 
   84500   0.44183695  -0.15598234   0.66142991   -5.1595768   -4.4981469 
   84600   0.45115872  -0.21016203   0.67538461   -5.1734014   -4.4980168 
   84700   0.42461463 -0.022522394    0.6356481   -5.1329726   -4.4973245 
   84800   0.42532464  0.052617049   0.63671099   -5.1339077   -4.4971967 
   84900   0.44053694  0.014686951    0.6594838   -5.1570068    -4.497523 
   85000   0.45565943 -0.053841721   0.68212217   -5.1798738   -4.4977517 
   85100   0.46269277 -0.078470893   0.69265108   -5.1904346   -4.4977835 
   85200   0.43970409  0.079590209   0.65823702   -5.1567363   -4.4984993 
   85300   0.46628696 -0.015110203   0.69803158   -5.1970148   -4.4989833 
   85400    0.4644012  0.063645846    0.6952086   -5.1947079   -4.4994993 
   85500   0.45528604   0.21098305    0.6815632   -5.1818459   -4.5002827 
   85600    0.4653433   0.22771591   0.69661892   -5.1985368   -4.5019179 
   85700   0.47776385   0.21564947   0.71521248   -5.2162822   -4.5010697 
   85800   0.47089916   0.26534301   0.70493604   -5.2056793   -4.5007433 
   85900   0.48084561   0.21017441   0.71982587   -5.2203435   -4.5005176 
   86000   0.46382511   0.27710302    0.6943462   -5.1950238   -4.5006776 
   86100   0.46727541   0.21449511   0.69951129    -5.199431   -4.4999197 
   86200    0.4758551   0.13603254   0.71235509   -5.2125435   -4.5001884 
   86300   0.45132509   0.26905423   0.67563366   -5.1752983   -4.4996646 
   86400    0.4499689   0.29807954   0.67360345   -5.1737315    -4.500128 
   86500   0.45391633     0.244691   0.67951275    -5.179043   -4.4995302 
   86600   0.45522736   0.18739541   0.68147536   -5.1809059   -4.4994305 
   86700   0.47088863  0.086844804   0.70492028   -5.2036682   -4.4987479 
   86800   0.45416847   0.18327919   0.67989019   -5.1787654   -4.4988752 
   86900   0.45263266    0.2218531    0.6775911     -5.17653   -4.4989389 
   87000    0.4545634    0.2245501   0.68048142   -5.1803642   -4.4998828 
   87100   0.45315908   0.22897221   0.67837914   -5.1787838   -4.5004046 
   87200   0.45231284   0.19546687   0.67711232   -5.1774163    -4.500304 
   87300   0.47635808 -0.0011855931   0.71310805   -5.2148278   -4.5017197 
   87400   0.46148792   0.03223282   0.69084741    -5.192178   -4.5013306 
   87500   0.44813172  0.085785362   0.67085319   -5.1725194   -4.5016662 
   87600   0.46030864  0.064313868   0.68908203   -5.1896363   -4.5005543 
   87700   0.45523202   0.15179614   0.68148233   -5.1819104   -4.5004281 
   87800   0.45971365   0.19382368   0.68819133   -5.1884362   -4.5002448 
   87900   0.45699812   0.25430129   0.68412618   -5.1857077   -4.5015816 
   88000   0.47954618    0.1556097   0.71788064   -5.2193984   -4.5015177 
   88100   0.48103387   0.17251503   0.72010771   -5.2207138   -4.5006061 
   88200   0.47694043   0.24426939   0.71397983    -5.213999   -4.5000192 
   88300   0.45979519   0.34997502   0.68831339   -5.1884903   -4.5001769 
   88400   0.47067175   0.25145052   0.70459561   -5.2047081   -4.5001125 
   88500   0.47604463   0.16619457   0.71263881   -5.2123884   -4.4997496 
   88600   0.45630705   0.23202005   0.68309165   -5.1831995   -4.5001079 
   88700   0.44342536   0.23617318   0.66380776   -5.1636607   -4.4998529 
   88800   0.45803532  0.055641301   0.68567887   -5.1841857   -4.4985068 
   88900   0.44933256 -0.0029137123   0.67265085   -5.1710281   -4.4983772 
   89000   0.44489688 -0.052113761   0.66601063   -5.1641579   -4.4981473 
   89100      0.44395 -0.067337177   0.66459315   -5.1632612    -4.498668 
   89200   0.43237371  0.053960565   0.64726345   -5.1463417   -4.4990782 
   89300    0.4288475   0.16129083   0.64198471   -5.1410646   -4.4990799 
   89400   0.43193924    0.1910874   0.64661305   -5.1457583   -4.4991453 
   89500   0.44447278   0.15049954   0.66537575   -5.1640287    -4.498653 
   89600   0.44454613   0.16154765   0.66548556   -5.1640693   -4.4985837 
   89700   0.45874809   0.10435783   0.68674589   -5.1862095   -4.4994636 
   89800   0.47155857  0.084068456   0.70592317   -5.2055468   -4.4996236 
   89900   0.43947454   0.30460743   0.65789339   -5.1571821   -4.4992887 
   90000   0.44333781   0.31047449    0.6636767    -5.163031   -4.4993543 
   90100   0.45889283   0.20852732   0.68696256   -5.1859601   -4.4989975 
   90200   0.47457425   0.10992288   0.71043765   -5.2108066    -4.500369 
   90300   0.46882575   0.16057466   0.70183215   -5.2020271   -4.5001949 
   90400   0.47336268   0.16981232   0.70862394   -5.2093079    -4.500684 
   90500   0.48030728   0.17291432      0.71902   -5.2205873   -4.5015673 
   90600   0.45485223    0.3724685   0.68091379   -5.1830681   -4.5021543 
   90700   0.45320915   0.42730976   0.67845409   -5.1806094   -4.5021553 
   90800   0.44064475   0.51351889   0.65964519   -5.1616134   -4.5019683 
   90900    0.4627847   0.38804398    0.6927887   -5.1944237    -4.501635 
   91000   0.48512585   0.26956778    0.7262334   -5.2274335   -4.5012001 
   91100   0.45298368   0.43954462   0.67811656   -5.1793466   -4.5012301 
   91200   0.46788337   0.32944719    0.7004214   -5.2022075   -4.5017861 
   91300   0.46131614   0.31089541   0.69059027   -5.1917878   -4.5011975 
   91400   0.44799589   0.32318569   0.67064984    -5.171953   -4.5013032 
   91500   0.44982308   0.23277008   0.67338516   -5.1738072   -4.5004221 
   91600   0.46039001   0.10286487   0.68920385   -5.1895749    -4.500371 
   91700   0.46447339  0.044602256   0.69531666    -5.195002   -4.4996854 
   91800   0.45637159  0.060826615   0.68318828   -5.1830689   -4.4998806 
   91900   0.46494871 -0.014379065   0.69602822   -5.1963714   -4.5003432 
   92000   0.46647812 -0.029003193   0.69831774   -5.1980732   -4.4997554 
   92100   0.45178618   0.09559833    0.6763239    -5.175793   -4.4994691 
   92200   0.45185763   0.13189375   0.67643088   -5.1770176   -4.5005867 
   92300   0.45624318   0.13054822   0.68299605   -5.1836104   -4.5006144 
   92400   0.45743278   0.15451608   0.68477687   -5.1867657   -4.5019888 
   92500   0.45628371   0.22368787   0.68305671   -5.1848187   -4.5017619 
   92600   0.46295133   0.24565232   0.69303814   -5.1952571    -4.502219 
   92700   0.46158806    0.2815583   0.69099732   -5.1933786   -4.5023813 
   92800    0.4563189   0.33143875    0.6831094   -5.1853601   -4.5022507 
   92900   0.45462604   0.37133346   0.68057519   -5.1828538   -4.5022786 
   93000    0.4868012   0.21841479   0.72874139    -5.230563   -4.5018216 
   93100   0.46903629    0.3159112   0.70214732    -5.203837   -4.5016896 
   93200   0.44700475   0.44246256   0.66916611   -5.1697825   -4.5006164 
   93300   0.44743402   0.42432833   0.66980872   -5.1703559   -4.5005471 
   93400   0.44981896    0.3511159   0.67337898   -5.1733972   -4.5000183 
   93500   0.44923585   0.26628795   0.67250607   -5.1725291    -4.500023 
   93600   0.44792439   0.18525841   0.67054281   -5.1702898    -4.499747 
   93700   0.45972983  0.062905094   0.68821555   -5.1878326    -4.499617 
   93800     0.453973  0.054607436   0.67959758   -5.1796088   -4.5000112 
   93900   0.44420059  0.069725865   0.66496828   -5.1644875   -4.4995192 
   94000   0.42967609  0.090922517    0.6432251   -5.1416984   -4.4984733 
   94100   0.43373842   0.01429987   0.64930641   -5.1481435   -4.4988371 
   94200   0.44239781 -0.077438694   0.66226952    -5.160648   -4.4983785 
   94300   0.43795187 -0.076344171   0.65561394   -5.1524252   -4.4968112 
   94400   0.45553557  -0.16888274   0.68193675   -5.1803843   -4.4984476 
   94500   0.47366654   -0.2053902   0.70907881    -5.207172   -4.4980932 
   94600   0.44730806  0.018743732   0.66962017   -5.1675824   -4.4979622 
   94700   0.45590173  0.036615512   0.68248488   -5.1812297   -4.4987448 
   94800   0.46810644  0.017976898   0.70075535    -5.200115   -4.4993597 
   94900   0.47745716   0.05060065   0.71475337   -5.2145191   -4.4997657 
   95000   0.46207744     0.247959   0.69172993   -5.1919246   -4.5001946 
   95100   0.45829067   0.38396926   0.68606113   -5.1866756   -4.5006145 
   95200   0.47528321    0.3847328   0.71149897   -5.2126656   -4.5011667 
   95300   0.47132155   0.45880164   0.70556836   -5.2081706   -4.5026023 
   95400   0.48260837   0.38983398   0.72246474   -5.2250341   -4.5025694 
   95500   0.49328325    0.2954265   0.73844503    -5.241341    -4.502896 
   95600   0.48972544   0.29318463   0.73311899   -5.2366682   -4.5035492 
   95700    0.4698778   0.38072586   0.70340707   -5.2074868   -4.5040797 
   95800    0.4696116   0.34773408   0.70300856   -5.2069092   -4.5039006 
   95900   0.46187824   0.36866125   0.69143173    -5.195696   -4.5042642 
   96000    0.4633321   0.37523611   0.69360815   -5.1973841   -4.5037759 
   96100   0.44511986   0.45304325   0.66634444   -5.1705174    -4.504173 
   96200   0.45919931   0.33842017   0.68742137   -5.1906413   -4.5032199 
   96300    0.4491347   0.36507475   0.67235464    -5.174834   -4.5024794 
   96400   0.45132925   0.34626455   0.67563989   -5.1770735   -4.5014336 
   96500   0.45744281   0.28873665   0.68479189    -5.185733   -4.5009411 
   96600   0.44588296   0.28667842   0.66748679   -5.1675129   -4.5000261 
   96700   0.43579057   0.25025302   0.65237848   -5.1514569   -4.4990785 
   96800   0.45077926  0.066366407   0.67481656   -5.1732422   -4.4984257 
   96900   0.45916387 -0.044310791   0.68736832   -5.1862811   -4.4989128 
   97000   0.44873481 -0.0031676026   0.67175602   -5.1707966   -4.4990406 
   97100   0.45372401 -0.021513561   0.67922485   -5.1795995   -4.5003747 
   97200   0.46359088 -0.040651826   0.69399555   -5.1948925   -4.5008969 
   97300   0.45083469  0.086153746   0.67489954   -5.1756316   -4.5007321 
   97400     0.451243   0.14767144   0.67551077   -5.1758518   -4.5003411 
   97500   0.45353499    0.2043143   0.67894187   -5.1788635   -4.4999217 
   97600   0.45085451   0.26696179   0.67492919   -5.1756393   -4.5007101 
   97700   0.46699518   0.21061933   0.69909179   -5.1995411   -4.5004494 
   97800   0.46692678   0.20759988    0.6989894   -5.1999639   -4.5009745 
   97900   0.46004746   0.25827431   0.68869104   -5.1895662   -4.5008752 
   98000    0.4710786   0.24430151   0.70520466   -5.2055777   -4.5003731 
   98100   0.44999179   0.37848182   0.67363772   -5.1740466   -4.5004089 
   98200   0.45711276   0.33587585    0.6842978   -5.1848058    -4.500508 
   98300   0.46464795   0.24784773   0.69557798   -5.1963211   -4.5007431 
   98400    0.4667721   0.17400639   0.69875784   -5.1992719   -4.5005141 
   98500   0.47496901  0.054131783   0.71102861   -5.2118372   -4.5008085 
   98600   0.44835302   0.16985299   0.67118447   -5.1715919   -4.5004074 
   98700    0.4364557   0.21553095   0.65337419   -5.1533589   -4.4999848 
   98800   0.44486314   0.13198429   0.66596012   -5.1660768   -4.5001167 
   98900   0.43264055   0.12892511   0.64766291   -5.1470934   -4.4994305 
   99000   0.43903821  0.041723376    0.6572402   -5.1560837   -4.4988435 
   99100   0.41378811   0.15279857   0.61944079   -5.1177275   -4.4982867 
   99200    0.4261779  0.062598016   0.63798831   -5.1374839   -4.4994956 
   99300   0.45084067   -0.1035966   0.67490849   -5.1739135    -4.499005 
   99400   0.44662749 -0.094324128   0.66860135   -5.1666554   -4.4980541 
   99500   0.45632524  -0.11886463   0.68311888   -5.1809462   -4.4978273 
   99600   0.44505003 -0.017036636   0.66623989   -5.1637796   -4.4975397 
   99700   0.43079773  0.073324603   0.64490419   -5.1423047   -4.4974005 
   99800   0.46469359  -0.12477134    0.6956463   -5.1938118   -4.4981655 
   99900   0.47242432  -0.17042647   0.70721921   -5.2055002    -4.498281 
  100000   0.44670001  0.016558553   0.66870992   -5.1676106   -4.4989006 
  100100   0.43942463   0.14985192   0.65781867   -5.1567097    -4.498891 
  100200   0.45738904   0.14845987    0.6847114   -5.1837659   -4.4990545 
  100300   0.47637232   0.12999538   0.71312937   -5.2129674   -4.4998381 
  100400   0.46577139   0.25504066   0.69725976   -5.1972974   -4.5000376 
  100500   0.46788878   0.28678387    0.7004295   -5.2011571   -4.5007276 
  100600   0.47486797   0.28037859   0.71087735   -5.2130061   -4.5021288 
  100700    0.4590002   0.39377627    0.6871233   -5.1900738   -4.5029505 
  100800    0.4528798   0.47120823   0.67796107   -5.1804838   -4.5025227 
  100900    0.4362831   0.59706498    0.6531158   -5.1558341   -4.5027183 
  101000      0.45049   0.50256765   0.67438353   -5.1768387   -4.5024552 
  101100    0.4747878   0.31338306   0.71075734   -5.2127233   -4.5019659 
  101200   0.45459511   0.36048863   0.68052888   -5.1825292   -4.5020003 
  101300     0.457865   0.28229845   0.68542391   -5.1874184   -4.5019945 
[...]
  475900   0.44903336  0.075860341   0.67220294   -5.1739803   -4.5017774 
  476000   0.45358306  0.087454642   0.67901384   -5.1808872   -4.5018734 
  476100   0.45692529  0.092615715   0.68401715   -5.1857056   -4.5016885 
  476200   0.47182829  0.051322774   0.70632695     -5.20776   -4.5014331 
  476300   0.47291166  0.091410706   0.70794875   -5.2099454   -4.5019966 
  476400   0.47919031   0.11039627   0.71734789   -5.2196396   -4.5022917 
  476500   0.46004138   0.26429294   0.68868195   -5.1915608   -4.5028789 
  476600   0.45887953   0.32549789   0.68694266   -5.1905179   -4.5035752 
  476700   0.46732627   0.29598997   0.69958743   -5.2034865   -4.5038991 
  476800   0.48355587   0.22710145   0.72388313   -5.2288924   -4.5050093 
  476900   0.48285329   0.24716515   0.72283138   -5.2276166   -4.5047852 
  477000    0.4906389   0.21794143   0.73448643   -5.2387827   -4.5042962 
  477100   0.49517029   0.19692612   0.74126993   -5.2461943   -4.5049244 
  477200   0.49782771   0.22110569   0.74524808   -5.2508505   -4.5056024 
  477300   0.51042099    0.1942322   0.76410021   -5.2701277   -4.5060275 
  477400   0.47987796   0.38072315    0.7183773   -5.2231956   -4.5048183 
  477500   0.49402105   0.33202953   0.73954951   -5.2442126   -4.5046631 
  477600   0.48424656   0.37087747    0.7249171   -5.2299057   -4.5049886 
  477700   0.49438641   0.27129259   0.74009646   -5.2458404   -4.5057439 
  477800   0.48172085   0.28200542   0.72113612   -5.2271401   -4.5060039 
  477900   0.48609796   0.24700834   0.72768865   -5.2338574   -4.5061687 
  478000   0.49210297   0.20449411   0.73667815   -5.2408566   -4.5041785 
  478100    0.4899607   0.19629017   0.73347117   -5.2375489   -4.5040777 
  478200   0.49010642    0.1726252   0.73368932   -5.2383227   -4.5046334 
  478300   0.48271167   0.19352482   0.72261937   -5.2268375   -4.5042182 
  478400   0.48918592   0.13484789   0.73231132   -5.2361176   -4.5038063 
  478500    0.4674478   0.22289869   0.69976935   -5.2031827   -4.5034134 
  478600   0.45962313   0.23895851   0.68805583   -5.1904251   -4.5023693 
  478700   0.47235097  0.084255083   0.70710941   -5.2091849   -4.5020755 
  478800   0.46103421  0.063401659   0.69016821   -5.1922134   -4.5020452 
  478900   0.47088304 -0.023287153   0.70491191   -5.2070574   -4.5021455 
  479000   0.46374113 -0.017473202   0.69422047   -5.1957132   -4.5014927 
  479100   0.44579385  0.073066007    0.6673534   -5.1673116   -4.4999582 
  479200   0.46315575 -0.034307943   0.69334416   -5.1931715   -4.4998273 
  479300   0.46713124 -0.058249702   0.69929547   -5.1979448   -4.4986493 
  479400   0.46755077 -0.064558612    0.6999235   -5.1982461   -4.4983226 
  479500   0.47076493  -0.08311751   0.70473509    -5.203226   -4.4984909 
  479600    0.4678968 -0.021122367    0.7004415   -5.2005346   -4.5000931 
  479700    0.4620757  0.047271057   0.69172732   -5.1933528   -4.5016255 
  479800   0.47588918 0.0037243065   0.71240611   -5.2130859   -4.5006798 
  479900    0.4765548  0.025431153   0.71340253   -5.2157802   -4.5023777 
  480000   0.45330325   0.19404238   0.67859497   -5.1819226   -4.5033276 
  480100   0.46805663    0.1636111   0.70068078   -5.2045302   -4.5038494 
  480200   0.48052907   0.17581895   0.71935202   -5.2240929   -4.5047409 
  480300   0.46062093   0.37764213   0.68954953   -5.1954611   -4.5059115 
  480400   0.47503715    0.3973682   0.71113062   -5.2175606     -4.50643 
  480500   0.48175701   0.43994349   0.72119024   -5.2278223    -4.506632 
  480600    0.4716538    0.5351001   0.70606574   -5.2136774   -4.5076116 
  480700   0.48003121   0.48508856   0.71860672    -5.225075   -4.5064683 
  480800   0.49395408   0.37642506   0.73944925   -5.2462728   -4.5068235 
  480900    0.4796502   0.40850528   0.71803634   -5.2240781   -4.5060418 
  481000   0.50254605   0.26338476   0.75231144    -5.257019   -4.5047076 
  481100   0.48936171   0.32472361   0.73257448   -5.2367588   -4.5041843 
  481200   0.47214035   0.39087656    0.7067941   -5.2117611    -4.504967 
  481300   0.47274642   0.33290994   0.70770139   -5.2109927   -4.5032913 
  481400   0.45534948   0.32764012   0.68165817   -5.1834483   -4.5017901 
  481500   0.46829916   0.13378908   0.70104384   -5.2028344   -4.5017905 
  481600   0.46534005  0.019761664   0.69661405   -5.1974353   -4.5008212 
  481700   0.48631527  -0.16882941   0.72801395   -5.2276269    -4.499613 
  481800   0.46280629  -0.10352268   0.69282102   -5.1910963   -4.4982753 
  481900   0.47644476  -0.20565316    0.7132378    -5.211471   -4.4982332 
  482000   0.47116955  -0.19107015   0.70534081   -5.2030191   -4.4976783 
  482100   0.45855515  -0.14917752   0.68645706   -5.1843958   -4.4979388 
  482200   0.47298602  -0.26537394   0.70806007   -5.2055413   -4.4974812 
  482300   0.46873112  -0.26063811   0.70169049   -5.1981541   -4.4964636 
  482400   0.46661542  -0.24499052   0.69852328   -5.1955361   -4.4970129 
  482500   0.46895362  -0.21018548   0.70202357   -5.1998201   -4.4977965 
  482600   0.44812917  -0.03091509   0.67084937   -5.1689351   -4.4980857 
  482700   0.46517083 -0.050343747   0.69636073   -5.1958162   -4.4994555 
  482800    0.4633436  0.033685297   0.69362536   -5.1947076   -4.5010823 
  482900   0.45509463    0.1466151   0.68127666   -5.1825542   -4.5012775 
  483000   0.47146382    0.1229285   0.70578134   -5.2079743    -4.502193 
  483100   0.46166154   0.21302885   0.69110733   -5.1947955   -4.5036882 
  483200    0.4789871    0.1441536   0.71704369   -5.2210265   -4.5039828 
  483300   0.48444512   0.15920641   0.72521434   -5.2296559   -4.5044416 
  483400   0.48575764   0.22508349   0.72717918   -5.2322048   -4.5050256 
  483500   0.50672027   0.17018141   0.75856025   -5.2647289   -4.5061686 
  483600   0.49952091   0.26540795    0.7477828   -5.2551262   -4.5073434 
  483700   0.50788276   0.29327097   0.76030049   -5.2682939   -4.5079935 
  483800   0.49819715   0.40651891   0.74580114   -5.2541867   -4.5083856 
  483900   0.48407549     0.500547   0.72466101    -5.232785    -4.508124 
  484000   0.49443275   0.43874426   0.74016583   -5.2477356   -4.5075698 
  484100   0.48924755   0.41804439   0.73240358   -5.2391247   -4.5067211 
  484200   0.49839872    0.2994814   0.74610289   -5.2531529     -4.50705 
  484300   0.48631513   0.28310599   0.72801375   -5.2348782   -4.5068644 
  484400   0.47872916   0.24330415   0.71665755   -5.2229032   -4.5062456 
  484500   0.47278136   0.21456344    0.7077537   -5.2124176   -4.5046639 
  484600   0.47089675   0.16743643   0.70493243   -5.2086973   -4.5037649 
  484700   0.46352818    0.1208217   0.69390168   -5.1967897    -4.502888 
  484800   0.47731267 -0.070795981   0.71453706   -5.2159571   -4.5014201 
  484900   0.45104948 -0.035259948   0.67522107   -5.1757551    -4.500534 
  485000   0.45115864 -0.086495163   0.67538448   -5.1750288   -4.4996443 
  485100   0.46721409  -0.17158489    0.6994195   -5.1994878   -4.5000683 
  485200   0.46108958 -0.093746928    0.6902511   -5.1916247   -4.5013736 
  485300   0.43656789  0.065949137   0.65354213   -5.1545946   -4.5010524 
  485400   0.45658983 -0.030838126   0.68351497   -5.1856084   -4.5020934 
  485500   0.46244172 -0.045837398   0.69227525   -5.1941378   -4.5018626 
  485600   0.47284801 -0.061983677   0.70785347    -5.209749   -4.5018956 
  485700   0.47253425 -0.015622792   0.70738378   -5.2097031   -4.5023194 
  485800   0.47325102 -0.0059667022   0.70845678   -5.2117818    -4.503325 
  485900   0.48068645 -0.0067472651   0.71958761   -5.2237257   -4.5041381 
  486000    0.4494526   0.21412566   0.67283054    -5.178176   -4.5053455 
  486100   0.47853908   0.11819364     0.716373   -5.2212296   -4.5048566 
  486200   0.49536699  0.097370806   0.74156439   -5.2471489   -4.5055845 
  486300   0.48452081   0.27489218   0.72532766   -5.2327722   -4.5074445 
  486400   0.45159532   0.54918701   0.67603819   -5.1834817   -4.5074435 
  486500   0.48196477   0.42620833   0.72150126    -5.228824   -4.5073227 
  486600   0.48355118    0.4071364   0.72387612   -5.2315238   -4.5076477 
  486700      0.47492   0.46943457   0.71095524   -5.2183758   -4.5074206 
  486800   0.45926807   0.53908256   0.68752429   -5.1964161   -4.5088918 
  486900   0.46377606   0.47375201   0.69427277   -5.2021532   -4.5078805 
  487000   0.48412345   0.30565921   0.72473281   -5.2321905   -4.5074577 
  487100   0.49028067   0.20168331   0.73395017   -5.2402719   -4.5063217 
  487200   0.48105121   0.19058337   0.72013365   -5.2238492   -4.5037155 
  487300   0.46894276    0.2156378   0.70200731   -5.2053288   -4.5033214 
  487400   0.46698874   0.16302788   0.69908214   -5.2028615   -4.5037794 
  487500    0.4692511  0.066762704   0.70246889   -5.2051401   -4.5026712 
  487600   0.48805219 -0.082090812   0.73061413   -5.2325399   -4.5019258 
  487700   0.49083581 -0.095489048    0.7347812   -5.2370906   -4.5023094 
  487800   0.45518143  0.093544458    0.6814066    -5.183714   -4.5023074 
  487900    0.4968073  -0.16900245   0.74372053   -5.2456691   -4.5019486 
  488000    0.4951903  -0.18923196   0.74129988   -5.2431569    -4.501857 
  488100   0.47662628 -0.024298441   0.71350954   -5.2161147   -4.5026051 
  488200   0.46844535   0.10513244   0.70126268   -5.2042208   -4.5029581 
  488300   0.48632928   0.11385027   0.72803493   -5.2314568   -4.5034219 
  488400   0.47242614     0.264491   0.70722192   -5.2120167   -4.5047948 
  488500   0.47454984   0.28101188   0.71040111   -5.2143203   -4.5039192 
  488600   0.46947632   0.29789754   0.70280605   -5.2072766   -4.5044706 
  488700   0.48353631   0.20290309   0.72385385   -5.2287461   -4.5048923 
  488800   0.47274365   0.22728763   0.70769724   -5.2122986   -4.5046014 
  488900   0.46979652   0.22350967   0.70328539   -5.2076252   -4.5043399 
  489000   0.46456972    0.2544233   0.69546087   -5.2005881   -4.5051273 
  489100   0.47497855   0.22441277   0.71104289   -5.2156686   -4.5046258 
  489200   0.48521747   0.23440848   0.72637056   -5.2298861   -4.5035155 
  489300   0.48107851   0.32359204   0.72017453    -5.224145   -4.5039704 
  489400   0.47842805   0.34559359   0.71620679   -5.2197531   -4.5035463 
  489500   0.49016362   0.24138959   0.73377494   -5.2379039    -4.504129 
  489600   0.49848191   0.17024675   0.74622742   -5.2505766   -4.5043492 
  489700   0.48022583   0.25401112   0.71889806   -5.2230136   -4.5041155 
  489800    0.4565498   0.33502957   0.68345505   -5.1873402   -4.5038851 
  489900   0.48066783   0.15713094   0.71955974   -5.2237426   -4.5041828 
  490000   0.48063802   0.13748375   0.71951512   -5.2236281   -4.5041129 
  490100   0.45792824    0.2511281   0.68551858   -5.1892067   -4.5036881 
  490200   0.47281237   0.16673686   0.70780013   -5.2113591   -4.5035589 
  490300   0.47035434   0.15308048   0.70412044   -5.2071562   -4.5030357 
  490400   0.44649378   0.25484993   0.66840119   -5.1711028   -4.5027016 
  490500   0.44689298   0.19591428   0.66899879   -5.1718677   -4.5028689 
  490600   0.47678208 -0.0088127841   0.71374277   -5.2163502   -4.5026074 
  490700   0.45448304   0.10534511   0.68036111     -5.18264   -4.5022789 
  490800     0.464613  0.045031599   0.69552566   -5.1964708   -4.5009452 
  490900   0.47269488 0.0021864283   0.70762424   -5.2082849   -4.5006607 
  491000   0.45854399   0.14016122   0.68644035   -5.1881119   -4.5016715 
  491100   0.44991403   0.22209508    0.6735213   -5.1753156   -4.5017943 
  491200   0.46806977   0.10996407   0.70070045   -5.2025596   -4.5018592 
  491300   0.47833513  0.027389163   0.71606769   -5.2177651   -4.5016974 
  491400    0.4329157   0.25812795    0.6480748   -5.1496722   -4.5015974 
  491500   0.44601201   0.16125082   0.66767998   -5.1695702   -4.5018903 
  491600   0.45096221  0.065087721   0.67509043   -5.1774034    -4.502313 
  491700   0.47170918 -0.046673021   0.70614864   -5.2080023   -4.5018537 
  491800   0.45101471   0.13396666   0.67516902    -5.176497   -4.5013279 
  491900   0.45794772   0.16154765   0.68554774   -5.1869742   -4.5014265 
  492000   0.46533161   0.16681488   0.69660142   -5.1983856   -4.5017842 
  492100   0.44281472   0.29531967   0.66289363   -5.1656887   -4.5027951 
  492200   0.45489343   0.18282456   0.68097547   -5.1828242   -4.5018487 
  492300   0.45765682  0.094674719   0.68511226   -5.1862632   -4.5011509 
  492400   0.48479789 -0.062620809   0.72574244   -5.2280396   -4.5022972 
  492500   0.47846549 -0.010001609   0.71626283   -5.2186288   -4.5023659 
  492600   0.50271131  -0.10143345   0.75255883   -5.2551563   -4.5025975 
  492700   0.48237542  0.070510732   0.72211601   -5.2248108   -4.5026948 
  492800   0.44853642    0.3030594   0.67145902   -5.1748388   -4.5033798 
  492900   0.47429287   0.17987718   0.71001642   -5.2143109   -4.5042945 
  493000   0.48228817   0.11910196   0.72198539   -5.2265407   -4.5045553 
  493100   0.47558413   0.12209983   0.71194944   -5.2157866   -4.5038371 
  493200   0.48049629  0.095217172   0.71930294   -5.2228842   -4.5035813 
  493300   0.46849103     0.179499   0.70133108   -5.2046883   -4.5033572 
  493400   0.48294496   0.12046543    0.7229686   -5.2269108   -4.5039422 
  493500    0.4836088   0.16266174   0.72396237   -5.2285834   -4.5046211 
  493600   0.47794166   0.26168343   0.71547866   -5.2201656    -4.504687 
  493700   0.45386136   0.39425564   0.67943046   -5.1832008   -4.5037704 
  493800   0.48824032   0.19514081   0.73089576   -5.2344132   -4.5035174 
  493900   0.48659773   0.20480854   0.72843679   -5.2324168     -4.50398 
  494000    0.4852143   0.20853011   0.72636581    -5.231161   -4.5047951 
  494100    0.4763658   0.24926767   0.71311961   -5.2175546    -4.504435 
  494200   0.47039311   0.30008121   0.70417849   -5.2090407   -4.5048622 
  494300   0.47519796   0.28448087   0.71137134   -5.2158745   -4.5045032 
  494400   0.46497119   0.33505244   0.69606187    -5.199161   -4.5030991 
  494500   0.49860181   0.15945496    0.7464069   -5.2489237   -4.5025168 
  494600   0.48867708   0.20950598   0.73154959   -5.2349471   -4.5033975 
  494700   0.47310474   0.27352938   0.70823779   -5.2106541   -4.5024163 
  494800    0.4804393    0.2050534   0.71921763   -5.2216334   -4.5024158 
  494900   0.45922099   0.26906412   0.68745382   -5.1906842   -4.5032304 
  495000   0.47039531   0.14631849   0.70418178   -5.2065604   -4.5023787 
  495100   0.45005849   0.20581039   0.67373755   -5.1758503   -4.5021128 
  495200   0.46385891   0.11664928   0.69439678    -5.196353   -4.5019562 
  495300   0.47595299  0.049105805   0.71250163   -5.2141008   -4.5015992 
  495400   0.45858108   0.14406148   0.68649588   -5.1880945   -4.5015986 
  495500   0.47393173   0.08369751    0.7094758   -5.2111804   -4.5017046 
  495600   0.48903937  0.017190243   0.73209194   -5.2351032   -4.5030112 
  495700   0.46609597   0.12838901   0.69774566   -5.2004629   -4.5027172 
  495800   0.48886554  0.015654623   0.73183172   -5.2346105   -4.5027788 
  495900   0.45818753   0.19858752   0.68590673   -5.1877074   -4.5018006 
  496000   0.48699843  0.039514192   0.72903665   -5.2315556    -4.502519 
  496100   0.50313571 -0.074211373   0.75319415     -5.25574   -4.5025458 
  496200    0.4828605 0.0012505957   0.72284216    -5.226136   -4.5032938 
  496300   0.47792995  0.015112402   0.71546114   -5.2189195   -4.5034584 
  496400   0.45930671   0.12088895   0.68758214   -5.1905734   -4.5029913 
  496500   0.48545011  0.015606442   0.72671881   -5.2303978    -4.503679 
  496600    0.4739073    0.1426538   0.70943923   -5.2117508   -4.5023116 
  496700   0.46044782   0.27027495   0.68929039   -5.1924837   -4.5031933 
  496800   0.47036324   0.21504807   0.70413378   -5.2078799   -4.5037461 
  496900   0.49448631  0.094001076   0.74024601    -5.243133    -4.502887 
  497000   0.46890444   0.29073193   0.70194995   -5.2049994   -4.5030494 
  497100   0.45349967   0.41749458   0.67888901   -5.1830401   -4.5041511 
  497200   0.48500058   0.25188053   0.72604587   -5.2303564   -4.5043105 
  497300   0.48296333   0.24576615   0.72299611    -5.227665   -4.5046689 
  497400   0.48354757   0.23506551   0.72387072   -5.2275575   -4.5036867 
  497500   0.48752392   0.20013661   0.72982332   -5.2333474   -4.5035241 
  497600   0.47155633   0.28001063   0.70591983   -5.2089519    -4.503032 
  497700   0.46757337   0.29334165   0.69995733   -5.2036734   -4.5037161 
  497800   0.48768393   0.20922869   0.73006284   -5.2339447   -4.5038818 
  497900   0.47409775   0.30374517   0.70972433   -5.2141854   -4.5044611 
  498000   0.47639088   0.29498383   0.71315715   -5.2186338   -4.5054766 
  498100   0.48342671   0.24353887   0.72368978   -5.2293705   -4.5056807 
  498200   0.46809648   0.26518938   0.70074043   -5.2046953   -4.5039548 
  498300   0.48241611   0.13497833   0.72217692   -5.2259341   -4.5037572 
  498400   0.47785034   0.12249156   0.71534196   -5.2187354   -4.5033935 
  498500   0.47259223   0.17038688   0.70747056   -5.2092684   -4.5017978 
  498600   0.46713045   0.23471194   0.69929429   -5.2003117   -4.5010174 
  498700   0.44755724   0.33430705   0.66999318   -5.1704577   -4.5004645 
  498800   0.47104938   0.15661521   0.70516092   -5.2065465   -4.5013856 
  498900   0.45494866   0.15718789   0.68105815   -5.1830967   -4.5020386 
  499000   0.45520623  0.098496818   0.68144372   -5.1833455   -4.5019018 
  499100   0.45371698  0.044780774   0.67921431   -5.1807892   -4.5015748 
  499200   0.44905808   0.03398568   0.67223995   -5.1736245   -4.5013845 
  499300   0.43661718  0.091269597   0.65361593   -5.1549347   -4.5013188 
  499400   0.43983224  0.069024814   0.65842886   -5.1579496   -4.4995208 
  499500    0.4597422 -0.035914135   0.68823408   -5.1871659   -4.4989318 
  499600   0.43507773   0.10733278   0.65131136   -5.1495248   -4.4982135 
  499700   0.44828166  0.024172074   0.67107765    -5.169587   -4.4985093 
  499800   0.45661278 -0.055497937   0.68354934   -5.1829418   -4.4993924 
  499900   0.43638236  0.072655648   0.65326439   -5.1524937   -4.4992293 
  500000   0.44787284  0.054336878   0.67046564   -5.1698621   -4.4993965 
  500100   0.46482794 0.00038433097   0.69584743   -5.1959591   -4.5001117 
  500200   0.47488296 -0.022841303   0.71089979   -5.2114741   -4.5005744 
  500300   0.47350993  0.013517149   0.70884436    -5.209679   -4.5008346 
  500400   0.49375228 -0.054867581   0.73914716   -5.2398202   -4.5006731 
  500500   0.46639777   0.14335584   0.69819746   -5.1999945   -4.5017971 
  500600   0.46180467   0.22395789   0.69132158   -5.1931514   -4.5018298 
  500700   0.47433619    0.1415679   0.71008128   -5.2123685   -4.5022873 
  500800   0.47577011   0.12706558   0.71222785   -5.2145143   -4.5022864 
  500900   0.46650751   0.20640817   0.69836175   -5.2012389   -4.5028772 
  501000   0.46460146   0.27142474   0.69550839   -5.1986419   -4.5031335 
Loop time of 33.1164 on 4 procs for 500000 steps with 500 atoms

Performance: 652244.365 tau/day, 15098.249 timesteps/s
99.9% CPU use with 4 MPI tasks x no OpenMP threads

MPI task timing breakdown:
Section |  min time  |  avg time  |  max time  |%varavg| %total
---------------------------------------------------------------
Pair    | 13.673     | 20.211     | 27.471     | 112.5 | 61.03
Neigh   | 0.3618     | 0.51077    | 0.65503    |  16.1 |  1.54
Comm    | 2.8263     | 10.558     | 17.554     | 165.9 | 31.88
Output  | 0.040272   | 0.05307    | 0.084231   |   7.8 |  0.16
Modify  | 0.84489    | 0.91772    | 1.0158     |   6.5 |  2.77
Other   |            | 0.8655     |            |       |  2.61

Nlocal:    125 ave 132 max 114 min
Histogram: 1 0 0 0 0 1 0 0 0 2
Nghost:    244 ave 253 max 231 min
Histogram: 1 0 0 0 1 0 0 0 0 2
Neighs:    3504.75 ave 4206 max 2864 min
Histogram: 2 0 0 0 0 0 0 0 0 2

Total # of neighbors = 14019
Ave neighs/atom = 28.038
Neighbor list builds = 4369
Dangerous builds = 0
Total wall time: 0:00:33
